+ 0 1 2 cbr 1000 ------- 2 1.0 2.0 0 0
- 0 1 2 cbr 1000 ------- 2 1.0 2.0 0 0
+ 0 0 1 tcp 1000 ------- 2 0.0 3.0 0 1
- 0 0 1 tcp 1000 ------- 2 0.0 3.0 0 1
+ 0 4 1 tcp 40 ------- 3 4.0 5.0 0 2
- 0 4 1 tcp 40 ------- 3 4.0 5.0 0 2
+ 0.000727 1 2 cbr 1000 ------- 2 1.0 2.0 1 3
- 0.0008 1 2 cbr 1000 ------- 2 1.0 2.0 1 3
+ 0.001455 1 2 cbr 1000 ------- 2 1.0 2.0 2 4
- 0.0016 1 2 cbr 1000 ------- 2 1.0 2.0 2 4
+ 0.002182 1 2 cbr 1000 ------- 2 1.0 2.0 3 5
- 0.0024 1 2 cbr 1000 ------- 2 1.0 2.0 3 5
+ 0.002909 1 2 cbr 1000 ------- 2 1.0 2.0 4 6
- 0.0032 1 2 cbr 1000 ------- 2 1.0 2.0 4 6
+ 0.003636 1 2 cbr 1000 ------- 2 1.0 2.0 5 7
- 0.004 1 2 cbr 1000 ------- 2 1.0 2.0 5 7
+ 0.004364 1 2 cbr 1000 ------- 2 1.0 2.0 6 8
- 0.0048 1 2 cbr 1000 ------- 2 1.0 2.0 6 8
+ 0.005091 1 2 cbr 1000 ------- 2 1.0 2.0 7 9
- 0.0056 1 2 cbr 1000 ------- 2 1.0 2.0 7 9
+ 0.005818 1 2 cbr 1000 ------- 2 1.0 2.0 8 10
- 0.0064 1 2 cbr 1000 ------- 2 1.0 2.0 8 10
+ 0.006545 1 2 cbr 1000 ------- 2 1.0 2.0 9 11
- 0.0072 1 2 cbr 1000 ------- 2 1.0 2.0 9 11
+ 0.007273 1 2 cbr 1000 ------- 2 1.0 2.0 10 12
+ 0.008 1 2 cbr 1000 ------- 2 1.0 2.0 11 13
- 0.008 1 2 cbr 1000 ------- 2 1.0 2.0 10 12
+ 0.008727 1 2 cbr 1000 ------- 2 1.0 2.0 12 14
- 0.0088 1 2 cbr 1000 ------- 2 1.0 2.0 11 13
+ 0.009455 1 2 cbr 1000 ------- 2 1.0 2.0 13 15
- 0.0096 1 2 cbr 1000 ------- 2 1.0 2.0 12 14
r 0.010032 4 1 tcp 40 ------- 3 4.0 5.0 0 2
+ 0.010032 1 2 tcp 40 ------- 3 4.0 5.0 0 2
+ 0.010182 1 2 cbr 1000 ------- 2 1.0 2.0 14 16
- 0.0104 1 2 cbr 1000 ------- 2 1.0 2.0 13 15
r 0.0108 1 2 cbr 1000 ------- 2 1.0 2.0 0 0
r 0.0108 0 1 tcp 1000 ------- 2 0.0 3.0 0 1
+ 0.0108 1 2 tcp 1000 ------- 2 0.0 3.0 0 1
+ 0.010909 1 2 cbr 1000 ------- 2 1.0 2.0 15 17
- 0.0112 1 2 tcp 40 ------- 3 4.0 5.0 0 2
- 0.011232 1 2 cbr 1000 ------- 2 1.0 2.0 14 16
r 0.0116 1 2 cbr 1000 ------- 2 1.0 2.0 1 3
+ 0.011636 1 2 cbr 1000 ------- 2 1.0 2.0 16 18
- 0.012032 1 2 tcp 1000 ------- 2 0.0 3.0 0 1
+ 0.012364 1 2 cbr 1000 ------- 2 1.0 2.0 17 19
r 0.0124 1 2 cbr 1000 ------- 2 1.0 2.0 2 4
- 0.012832 1 2 cbr 1000 ------- 2 1.0 2.0 15 17
+ 0.013091 1 2 cbr 1000 ------- 2 1.0 2.0 18 20
r 0.0132 1 2 cbr 1000 ------- 2 1.0 2.0 3 5
- 0.013632 1 2 cbr 1000 ------- 2 1.0 2.0 16 18
+ 0.013818 1 2 cbr 1000 ------- 2 1.0 2.0 19 21
r 0.014 1 2 cbr 1000 ------- 2 1.0 2.0 4 6
- 0.014432 1 2 cbr 1000 ------- 2 1.0 2.0 17 19
+ 0.014545 1 2 cbr 1000 ------- 2 1.0 2.0 20 22
r 0.0148 1 2 cbr 1000 ------- 2 1.0 2.0 5 7
- 0.015232 1 2 cbr 1000 ------- 2 1.0 2.0 18 20
+ 0.015273 1 2 cbr 1000 ------- 2 1.0 2.0 21 23
r 0.0156 1 2 cbr 1000 ------- 2 1.0 2.0 6 8
+ 0.016 1 2 cbr 1000 ------- 2 1.0 2.0 22 24
- 0.016032 1 2 cbr 1000 ------- 2 1.0 2.0 19 21
r 0.0164 1 2 cbr 1000 ------- 2 1.0 2.0 7 9
+ 0.016727 1 2 cbr 1000 ------- 2 1.0 2.0 23 25
- 0.016832 1 2 cbr 1000 ------- 2 1.0 2.0 20 22
r 0.0172 1 2 cbr 1000 ------- 2 1.0 2.0 8 10
+ 0.017455 1 2 cbr 1000 ------- 2 1.0 2.0 24 26
- 0.017632 1 2 cbr 1000 ------- 2 1.0 2.0 21 23
r 0.018 1 2 cbr 1000 ------- 2 1.0 2.0 9 11
+ 0.018182 1 2 cbr 1000 ------- 2 1.0 2.0 25 27
- 0.018432 1 2 cbr 1000 ------- 2 1.0 2.0 22 24
r 0.0188 1 2 cbr 1000 ------- 2 1.0 2.0 10 12
+ 0.018909 1 2 cbr 1000 ------- 2 1.0 2.0 26 28
- 0.019232 1 2 cbr 1000 ------- 2 1.0 2.0 23 25
r 0.0196 1 2 cbr 1000 ------- 2 1.0 2.0 11 13
+ 0.019636 1 2 cbr 1000 ------- 2 1.0 2.0 27 29
- 0.020032 1 2 cbr 1000 ------- 2 1.0 2.0 24 26
+ 0.020364 1 2 cbr 1000 ------- 2 1.0 2.0 28 30
r 0.0204 1 2 cbr 1000 ------- 2 1.0 2.0 12 14
- 0.020832 1 2 cbr 1000 ------- 2 1.0 2.0 25 27
+ 0.021091 1 2 cbr 1000 ------- 2 1.0 2.0 29 31
r 0.0212 1 2 cbr 1000 ------- 2 1.0 2.0 13 15
r 0.021232 1 2 tcp 40 ------- 3 4.0 5.0 0 2
+ 0.021232 2 5 tcp 40 ------- 3 4.0 5.0 0 2
- 0.021232 2 5 tcp 40 ------- 3 4.0 5.0 0 2
- 0.021632 1 2 cbr 1000 ------- 2 1.0 2.0 26 28
+ 0.021818 1 2 cbr 1000 ------- 2 1.0 2.0 30 32
r 0.022032 1 2 cbr 1000 ------- 2 1.0 2.0 14 16
- 0.022432 1 2 cbr 1000 ------- 2 1.0 2.0 27 29
+ 0.022545 1 2 cbr 1000 ------- 2 1.0 2.0 31 33
r 0.022832 1 2 tcp 1000 ------- 2 0.0 3.0 0 1
+ 0.022832 2 3 tcp 1000 ------- 2 0.0 3.0 0 1
- 0.022832 2 3 tcp 1000 ------- 2 0.0 3.0 0 1
- 0.023232 1 2 cbr 1000 ------- 2 1.0 2.0 28 30
+ 0.023273 1 2 cbr 1000 ------- 2 1.0 2.0 32 34
r 0.023632 1 2 cbr 1000 ------- 2 1.0 2.0 15 17
+ 0.024 1 2 cbr 1000 ------- 2 1.0 2.0 33 35
- 0.024032 1 2 cbr 1000 ------- 2 1.0 2.0 29 31
r 0.024432 1 2 cbr 1000 ------- 2 1.0 2.0 16 18
+ 0.024727 1 2 cbr 1000 ------- 2 1.0 2.0 34 36
- 0.024832 1 2 cbr 1000 ------- 2 1.0 2.0 30 32
r 0.025232 1 2 cbr 1000 ------- 2 1.0 2.0 17 19
+ 0.025455 1 2 cbr 1000 ------- 2 1.0 2.0 35 37
- 0.025632 1 2 cbr 1000 ------- 2 1.0 2.0 31 33
r 0.026032 1 2 cbr 1000 ------- 2 1.0 2.0 18 20
+ 0.026182 1 2 cbr 1000 ------- 2 1.0 2.0 36 38
- 0.026432 1 2 cbr 1000 ------- 2 1.0 2.0 32 34
r 0.026832 1 2 cbr 1000 ------- 2 1.0 2.0 19 21
+ 0.026909 1 2 cbr 1000 ------- 2 1.0 2.0 37 39
- 0.027232 1 2 cbr 1000 ------- 2 1.0 2.0 33 35
r 0.027632 1 2 cbr 1000 ------- 2 1.0 2.0 20 22
+ 0.027636 1 2 cbr 1000 ------- 2 1.0 2.0 38 40
- 0.028032 1 2 cbr 1000 ------- 2 1.0 2.0 34 36
+ 0.028364 1 2 cbr 1000 ------- 2 1.0 2.0 39 41
r 0.028432 1 2 cbr 1000 ------- 2 1.0 2.0 21 23
- 0.028832 1 2 cbr 1000 ------- 2 1.0 2.0 35 37
+ 0.029091 1 2 cbr 1000 ------- 2 1.0 2.0 40 42
r 0.029232 1 2 cbr 1000 ------- 2 1.0 2.0 22 24
- 0.029632 1 2 cbr 1000 ------- 2 1.0 2.0 36 38
+ 0.029818 1 2 cbr 1000 ------- 2 1.0 2.0 41 43
r 0.030032 1 2 cbr 1000 ------- 2 1.0 2.0 23 25
- 0.030432 1 2 cbr 1000 ------- 2 1.0 2.0 37 39
+ 0.030545 1 2 cbr 1000 ------- 2 1.0 2.0 42 44
r 0.030832 1 2 cbr 1000 ------- 2 1.0 2.0 24 26
- 0.031232 1 2 cbr 1000 ------- 2 1.0 2.0 38 40
r 0.031264 2 5 tcp 40 ------- 3 4.0 5.0 0 2
+ 0.031264 5 2 ack 40 ------- 3 5.0 4.0 0 45
- 0.031264 5 2 ack 40 ------- 3 5.0 4.0 0 45
+ 0.031273 1 2 cbr 1000 ------- 2 1.0 2.0 43 46
r 0.031632 1 2 cbr 1000 ------- 2 1.0 2.0 25 27
+ 0.032 1 2 cbr 1000 ------- 2 1.0 2.0 44 47
- 0.032032 1 2 cbr 1000 ------- 2 1.0 2.0 39 41
r 0.032432 1 2 cbr 1000 ------- 2 1.0 2.0 26 28
+ 0.032727 1 2 cbr 1000 ------- 2 1.0 2.0 45 48
- 0.032832 1 2 cbr 1000 ------- 2 1.0 2.0 40 42
r 0.033232 1 2 cbr 1000 ------- 2 1.0 2.0 27 29
+ 0.033455 1 2 cbr 1000 ------- 2 1.0 2.0 46 49
- 0.033632 1 2 cbr 1000 ------- 2 1.0 2.0 41 43
r 0.033632 2 3 tcp 1000 ------- 2 0.0 3.0 0 1
+ 0.033632 3 2 ack 40 ------- 2 3.0 0.0 0 50
- 0.033632 3 2 ack 40 ------- 2 3.0 0.0 0 50
r 0.034032 1 2 cbr 1000 ------- 2 1.0 2.0 28 30
+ 0.034182 1 2 cbr 1000 ------- 2 1.0 2.0 47 51
- 0.034432 1 2 cbr 1000 ------- 2 1.0 2.0 42 44
r 0.034832 1 2 cbr 1000 ------- 2 1.0 2.0 29 31
+ 0.034909 1 2 cbr 1000 ------- 2 1.0 2.0 48 52
- 0.035232 1 2 cbr 1000 ------- 2 1.0 2.0 43 46
r 0.035632 1 2 cbr 1000 ------- 2 1.0 2.0 30 32
+ 0.035636 1 2 cbr 1000 ------- 2 1.0 2.0 49 53
- 0.036032 1 2 cbr 1000 ------- 2 1.0 2.0 44 47
+ 0.036364 1 2 cbr 1000 ------- 2 1.0 2.0 50 54
r 0.036432 1 2 cbr 1000 ------- 2 1.0 2.0 31 33
- 0.036832 1 2 cbr 1000 ------- 2 1.0 2.0 45 48
+ 0.037091 1 2 cbr 1000 ------- 2 1.0 2.0 51 55
r 0.037232 1 2 cbr 1000 ------- 2 1.0 2.0 32 34
- 0.037632 1 2 cbr 1000 ------- 2 1.0 2.0 46 49
+ 0.037818 1 2 cbr 1000 ------- 2 1.0 2.0 52 56
r 0.038032 1 2 cbr 1000 ------- 2 1.0 2.0 33 35
- 0.038432 1 2 cbr 1000 ------- 2 1.0 2.0 47 51
+ 0.038545 1 2 cbr 1000 ------- 2 1.0 2.0 53 57
r 0.038832 1 2 cbr 1000 ------- 2 1.0 2.0 34 36
- 0.039232 1 2 cbr 1000 ------- 2 1.0 2.0 48 52
+ 0.039273 1 2 cbr 1000 ------- 2 1.0 2.0 54 58
r 0.039632 1 2 cbr 1000 ------- 2 1.0 2.0 35 37
+ 0.04 1 2 cbr 1000 ------- 2 1.0 2.0 55 59
- 0.040032 1 2 cbr 1000 ------- 2 1.0 2.0 49 53
r 0.040432 1 2 cbr 1000 ------- 2 1.0 2.0 36 38
+ 0.040727 1 2 cbr 1000 ------- 2 1.0 2.0 56 60
- 0.040832 1 2 cbr 1000 ------- 2 1.0 2.0 50 54
r 0.041232 1 2 cbr 1000 ------- 2 1.0 2.0 37 39
r 0.041296 5 2 ack 40 ------- 3 5.0 4.0 0 45
+ 0.041296 2 1 ack 40 ------- 3 5.0 4.0 0 45
- 0.041296 2 1 ack 40 ------- 3 5.0 4.0 0 45
+ 0.041455 1 2 cbr 1000 ------- 2 1.0 2.0 57 61
- 0.041632 1 2 cbr 1000 ------- 2 1.0 2.0 51 55
r 0.042032 1 2 cbr 1000 ------- 2 1.0 2.0 38 40
+ 0.042182 1 2 cbr 1000 ------- 2 1.0 2.0 58 62
- 0.042432 1 2 cbr 1000 ------- 2 1.0 2.0 52 56
r 0.042832 1 2 cbr 1000 ------- 2 1.0 2.0 39 41
+ 0.042909 1 2 cbr 1000 ------- 2 1.0 2.0 59 63
- 0.043232 1 2 cbr 1000 ------- 2 1.0 2.0 53 57
r 0.043632 1 2 cbr 1000 ------- 2 1.0 2.0 40 42
+ 0.043636 1 2 cbr 1000 ------- 2 1.0 2.0 60 64
r 0.043664 3 2 ack 40 ------- 2 3.0 0.0 0 50
+ 0.043664 2 1 ack 40 ------- 2 3.0 0.0 0 50
- 0.043664 2 1 ack 40 ------- 2 3.0 0.0 0 50
- 0.044032 1 2 cbr 1000 ------- 2 1.0 2.0 54 58
+ 0.044364 1 2 cbr 1000 ------- 2 1.0 2.0 61 65
r 0.044432 1 2 cbr 1000 ------- 2 1.0 2.0 41 43
- 0.044832 1 2 cbr 1000 ------- 2 1.0 2.0 55 59
+ 0.045091 1 2 cbr 1000 ------- 2 1.0 2.0 62 66
r 0.045232 1 2 cbr 1000 ------- 2 1.0 2.0 42 44
- 0.045632 1 2 cbr 1000 ------- 2 1.0 2.0 56 60
+ 0.045818 1 2 cbr 1000 ------- 2 1.0 2.0 63 67
r 0.046032 1 2 cbr 1000 ------- 2 1.0 2.0 43 46
- 0.046432 1 2 cbr 1000 ------- 2 1.0 2.0 57 61
+ 0.046545 1 2 cbr 1000 ------- 2 1.0 2.0 64 68
r 0.046832 1 2 cbr 1000 ------- 2 1.0 2.0 44 47
- 0.047232 1 2 cbr 1000 ------- 2 1.0 2.0 58 62
+ 0.047273 1 2 cbr 1000 ------- 2 1.0 2.0 65 69
r 0.047632 1 2 cbr 1000 ------- 2 1.0 2.0 45 48
+ 0.048 1 2 cbr 1000 ------- 2 1.0 2.0 66 70
- 0.048032 1 2 cbr 1000 ------- 2 1.0 2.0 59 63
r 0.048432 1 2 cbr 1000 ------- 2 1.0 2.0 46 49
+ 0.048727 1 2 cbr 1000 ------- 2 1.0 2.0 67 71
- 0.048832 1 2 cbr 1000 ------- 2 1.0 2.0 60 64
r 0.049232 1 2 cbr 1000 ------- 2 1.0 2.0 47 51
+ 0.049455 1 2 cbr 1000 ------- 2 1.0 2.0 68 72
- 0.049632 1 2 cbr 1000 ------- 2 1.0 2.0 61 65
r 0.050032 1 2 cbr 1000 ------- 2 1.0 2.0 48 52
+ 0.050182 1 2 cbr 1000 ------- 2 1.0 2.0 69 73
- 0.050432 1 2 cbr 1000 ------- 2 1.0 2.0 62 66
r 0.050832 1 2 cbr 1000 ------- 2 1.0 2.0 49 53
+ 0.050909 1 2 cbr 1000 ------- 2 1.0 2.0 70 74
- 0.051232 1 2 cbr 1000 ------- 2 1.0 2.0 63 67
r 0.051328 2 1 ack 40 ------- 3 5.0 4.0 0 45
+ 0.051328 1 4 ack 40 ------- 3 5.0 4.0 0 45
- 0.051328 1 4 ack 40 ------- 3 5.0 4.0 0 45
r 0.051632 1 2 cbr 1000 ------- 2 1.0 2.0 50 54
+ 0.051636 1 2 cbr 1000 ------- 2 1.0 2.0 71 75
- 0.052032 1 2 cbr 1000 ------- 2 1.0 2.0 64 68
+ 0.052364 1 2 cbr 1000 ------- 2 1.0 2.0 72 76
r 0.052432 1 2 cbr 1000 ------- 2 1.0 2.0 51 55
- 0.052832 1 2 cbr 1000 ------- 2 1.0 2.0 65 69
+ 0.053091 1 2 cbr 1000 ------- 2 1.0 2.0 73 77
r 0.053232 1 2 cbr 1000 ------- 2 1.0 2.0 52 56
- 0.053632 1 2 cbr 1000 ------- 2 1.0 2.0 66 70
r 0.053696 2 1 ack 40 ------- 2 3.0 0.0 0 50
+ 0.053696 1 0 ack 40 ------- 2 3.0 0.0 0 50
- 0.053696 1 0 ack 40 ------- 2 3.0 0.0 0 50
+ 0.053818 1 2 cbr 1000 ------- 2 1.0 2.0 74 78
r 0.054032 1 2 cbr 1000 ------- 2 1.0 2.0 53 57
- 0.054432 1 2 cbr 1000 ------- 2 1.0 2.0 67 71
+ 0.054545 1 2 cbr 1000 ------- 2 1.0 2.0 75 79
r 0.054832 1 2 cbr 1000 ------- 2 1.0 2.0 54 58
- 0.055232 1 2 cbr 1000 ------- 2 1.0 2.0 68 72
+ 0.055273 1 2 cbr 1000 ------- 2 1.0 2.0 76 80
r 0.055632 1 2 cbr 1000 ------- 2 1.0 2.0 55 59
+ 0.056 1 2 cbr 1000 ------- 2 1.0 2.0 77 81
- 0.056032 1 2 cbr 1000 ------- 2 1.0 2.0 69 73
r 0.056432 1 2 cbr 1000 ------- 2 1.0 2.0 56 60
+ 0.056727 1 2 cbr 1000 ------- 2 1.0 2.0 78 82
- 0.056832 1 2 cbr 1000 ------- 2 1.0 2.0 70 74
r 0.057232 1 2 cbr 1000 ------- 2 1.0 2.0 57 61
+ 0.057455 1 2 cbr 1000 ------- 2 1.0 2.0 79 83
- 0.057632 1 2 cbr 1000 ------- 2 1.0 2.0 71 75
r 0.058032 1 2 cbr 1000 ------- 2 1.0 2.0 58 62
+ 0.058182 1 2 cbr 1000 ------- 2 1.0 2.0 80 84
- 0.058432 1 2 cbr 1000 ------- 2 1.0 2.0 72 76
r 0.058832 1 2 cbr 1000 ------- 2 1.0 2.0 59 63
+ 0.058909 1 2 cbr 1000 ------- 2 1.0 2.0 81 85
- 0.059232 1 2 cbr 1000 ------- 2 1.0 2.0 73 77
r 0.059632 1 2 cbr 1000 ------- 2 1.0 2.0 60 64
+ 0.059636 1 2 cbr 1000 ------- 2 1.0 2.0 82 86
- 0.060032 1 2 cbr 1000 ------- 2 1.0 2.0 74 78
+ 0.060364 1 2 cbr 1000 ------- 2 1.0 2.0 83 87
r 0.060432 1 2 cbr 1000 ------- 2 1.0 2.0 61 65
- 0.060832 1 2 cbr 1000 ------- 2 1.0 2.0 75 79
+ 0.061091 1 2 cbr 1000 ------- 2 1.0 2.0 84 88
r 0.061232 1 2 cbr 1000 ------- 2 1.0 2.0 62 66
r 0.06136 1 4 ack 40 ------- 3 5.0 4.0 0 45
+ 0.06136 4 1 tcp 1040 ------- 3 4.0 5.0 1 89
- 0.06136 4 1 tcp 1040 ------- 3 4.0 5.0 1 89
+ 0.06136 4 1 tcp 1040 ------- 3 4.0 5.0 2 90
- 0.061632 1 2 cbr 1000 ------- 2 1.0 2.0 76 80
+ 0.061818 1 2 cbr 1000 ------- 2 1.0 2.0 85 91
r 0.062032 1 2 cbr 1000 ------- 2 1.0 2.0 63 67
- 0.062192 4 1 tcp 1040 ------- 3 4.0 5.0 2 90
- 0.062432 1 2 cbr 1000 ------- 2 1.0 2.0 77 81
+ 0.062545 1 2 cbr 1000 ------- 2 1.0 2.0 86 92
r 0.062832 1 2 cbr 1000 ------- 2 1.0 2.0 64 68
- 0.063232 1 2 cbr 1000 ------- 2 1.0 2.0 78 82
+ 0.063273 1 2 cbr 1000 ------- 2 1.0 2.0 87 93
r 0.063632 1 2 cbr 1000 ------- 2 1.0 2.0 65 69
r 0.063728 1 0 ack 40 ------- 2 3.0 0.0 0 50
+ 0.063728 0 1 tcp 1000 ------- 2 0.0 3.0 1 94
- 0.063728 0 1 tcp 1000 ------- 2 0.0 3.0 1 94
+ 0.064 1 2 cbr 1000 ------- 2 1.0 2.0 88 95
d 0.064 1 2 cbr 1000 ------- 2 1.0 2.0 88 95
- 0.064032 1 2 cbr 1000 ------- 2 1.0 2.0 79 83
r 0.064432 1 2 cbr 1000 ------- 2 1.0 2.0 66 70
+ 0.064727 1 2 cbr 1000 ------- 2 1.0 2.0 89 96
- 0.064832 1 2 cbr 1000 ------- 2 1.0 2.0 80 84
r 0.065232 1 2 cbr 1000 ------- 2 1.0 2.0 67 71
+ 0.065455 1 2 cbr 1000 ------- 2 1.0 2.0 90 97
- 0.065632 1 2 cbr 1000 ------- 2 1.0 2.0 81 85
r 0.066032 1 2 cbr 1000 ------- 2 1.0 2.0 68 72
+ 0.066182 1 2 cbr 1000 ------- 2 1.0 2.0 91 98
- 0.066432 1 2 cbr 1000 ------- 2 1.0 2.0 82 86
r 0.066832 1 2 cbr 1000 ------- 2 1.0 2.0 69 73
+ 0.066909 1 2 cbr 1000 ------- 2 1.0 2.0 92 99
- 0.067232 1 2 cbr 1000 ------- 2 1.0 2.0 83 87
r 0.067632 1 2 cbr 1000 ------- 2 1.0 2.0 70 74
+ 0.067636 1 2 cbr 1000 ------- 2 1.0 2.0 93 100
- 0.068032 1 2 cbr 1000 ------- 2 1.0 2.0 84 88
+ 0.068364 1 2 cbr 1000 ------- 2 1.0 2.0 94 101
r 0.068432 1 2 cbr 1000 ------- 2 1.0 2.0 71 75
- 0.068832 1 2 cbr 1000 ------- 2 1.0 2.0 85 91
+ 0.069091 1 2 cbr 1000 ------- 2 1.0 2.0 95 102
r 0.069232 1 2 cbr 1000 ------- 2 1.0 2.0 72 76
- 0.069632 1 2 cbr 1000 ------- 2 1.0 2.0 86 92
+ 0.069818 1 2 cbr 1000 ------- 2 1.0 2.0 96 103
r 0.070032 1 2 cbr 1000 ------- 2 1.0 2.0 73 77
- 0.070432 1 2 cbr 1000 ------- 2 1.0 2.0 87 93
+ 0.070545 1 2 cbr 1000 ------- 2 1.0 2.0 97 104
r 0.070832 1 2 cbr 1000 ------- 2 1.0 2.0 74 78
- 0.071232 1 2 cbr 1000 ------- 2 1.0 2.0 89 96
+ 0.071273 1 2 cbr 1000 ------- 2 1.0 2.0 98 105
r 0.071632 1 2 cbr 1000 ------- 2 1.0 2.0 75 79
+ 0.072 1 2 cbr 1000 ------- 2 1.0 2.0 99 106
d 0.072 1 2 cbr 1000 ------- 2 1.0 2.0 99 106
- 0.072032 1 2 cbr 1000 ------- 2 1.0 2.0 90 97
r 0.072192 4 1 tcp 1040 ------- 3 4.0 5.0 1 89
+ 0.072192 1 2 tcp 1040 ------- 3 4.0 5.0 1 89
r 0.072432 1 2 cbr 1000 ------- 2 1.0 2.0 76 80
+ 0.072727 1 2 cbr 1000 ------- 2 1.0 2.0 100 107
d 0.072727 1 2 cbr 1000 ------- 2 1.0 2.0 100 107
- 0.072832 1 2 cbr 1000 ------- 2 1.0 2.0 91 98
r 0.073024 4 1 tcp 1040 ------- 3 4.0 5.0 2 90
+ 0.073024 1 2 tcp 1040 ------- 3 4.0 5.0 2 90
r 0.073232 1 2 cbr 1000 ------- 2 1.0 2.0 77 81
+ 0.073455 1 2 cbr 1000 ------- 2 1.0 2.0 101 108
d 0.073455 1 2 cbr 1000 ------- 2 1.0 2.0 101 108
- 0.073632 1 2 cbr 1000 ------- 2 1.0 2.0 92 99
r 0.074032 1 2 cbr 1000 ------- 2 1.0 2.0 78 82
+ 0.074182 1 2 cbr 1000 ------- 2 1.0 2.0 102 109
- 0.074432 1 2 cbr 1000 ------- 2 1.0 2.0 93 100
r 0.074528 0 1 tcp 1000 ------- 2 0.0 3.0 1 94
+ 0.074528 1 2 tcp 1000 ------- 2 0.0 3.0 1 94
r 0.074832 1 2 cbr 1000 ------- 2 1.0 2.0 79 83
+ 0.074909 1 2 cbr 1000 ------- 2 1.0 2.0 103 110
d 0.074909 1 2 cbr 1000 ------- 2 1.0 2.0 103 110
- 0.075232 1 2 cbr 1000 ------- 2 1.0 2.0 94 101
r 0.075632 1 2 cbr 1000 ------- 2 1.0 2.0 80 84
+ 0.075636 1 2 cbr 1000 ------- 2 1.0 2.0 104 111
- 0.076032 1 2 cbr 1000 ------- 2 1.0 2.0 95 102
+ 0.076364 1 2 cbr 1000 ------- 2 1.0 2.0 105 112
r 0.076432 1 2 cbr 1000 ------- 2 1.0 2.0 81 85
- 0.076832 1 2 cbr 1000 ------- 2 1.0 2.0 96 103
+ 0.077091 1 2 cbr 1000 ------- 2 1.0 2.0 106 113
r 0.077232 1 2 cbr 1000 ------- 2 1.0 2.0 82 86
- 0.077632 1 2 cbr 1000 ------- 2 1.0 2.0 97 104
+ 0.077818 1 2 cbr 1000 ------- 2 1.0 2.0 107 114
r 0.078032 1 2 cbr 1000 ------- 2 1.0 2.0 83 87
- 0.078432 1 2 cbr 1000 ------- 2 1.0 2.0 98 105
+ 0.078545 1 2 cbr 1000 ------- 2 1.0 2.0 108 115
r 0.078832 1 2 cbr 1000 ------- 2 1.0 2.0 84 88
- 0.079232 1 2 tcp 1040 ------- 3 4.0 5.0 1 89
+ 0.079273 1 2 cbr 1000 ------- 2 1.0 2.0 109 116
r 0.079632 1 2 cbr 1000 ------- 2 1.0 2.0 85 91
+ 0.08 1 2 cbr 1000 ------- 2 1.0 2.0 110 117
d 0.08 1 2 cbr 1000 ------- 2 1.0 2.0 110 117
- 0.080064 1 2 tcp 1040 ------- 3 4.0 5.0 2 90
r 0.080432 1 2 cbr 1000 ------- 2 1.0 2.0 86 92
+ 0.080727 1 2 cbr 1000 ------- 2 1.0 2.0 111 118
- 0.080896 1 2 cbr 1000 ------- 2 1.0 2.0 102 109
r 0.081232 1 2 cbr 1000 ------- 2 1.0 2.0 87 93
+ 0.081455 1 2 cbr 1000 ------- 2 1.0 2.0 112 119
- 0.081696 1 2 tcp 1000 ------- 2 0.0 3.0 1 94
r 0.082032 1 2 cbr 1000 ------- 2 1.0 2.0 89 96
+ 0.082182 1 2 cbr 1000 ------- 2 1.0 2.0 113 120
- 0.082496 1 2 cbr 1000 ------- 2 1.0 2.0 104 111
r 0.082832 1 2 cbr 1000 ------- 2 1.0 2.0 90 97
+ 0.082909 1 2 cbr 1000 ------- 2 1.0 2.0 114 121
- 0.083296 1 2 cbr 1000 ------- 2 1.0 2.0 105 112
r 0.083632 1 2 cbr 1000 ------- 2 1.0 2.0 91 98
+ 0.083636 1 2 cbr 1000 ------- 2 1.0 2.0 115 122
- 0.084096 1 2 cbr 1000 ------- 2 1.0 2.0 106 113
+ 0.084364 1 2 cbr 1000 ------- 2 1.0 2.0 116 123
r 0.084432 1 2 cbr 1000 ------- 2 1.0 2.0 92 99
- 0.084896 1 2 cbr 1000 ------- 2 1.0 2.0 107 114
+ 0.085091 1 2 cbr 1000 ------- 2 1.0 2.0 117 124
r 0.085232 1 2 cbr 1000 ------- 2 1.0 2.0 93 100
- 0.085696 1 2 cbr 1000 ------- 2 1.0 2.0 108 115
+ 0.085818 1 2 cbr 1000 ------- 2 1.0 2.0 118 125
r 0.086032 1 2 cbr 1000 ------- 2 1.0 2.0 94 101
- 0.086496 1 2 cbr 1000 ------- 2 1.0 2.0 109 116
+ 0.086545 1 2 cbr 1000 ------- 2 1.0 2.0 119 126
r 0.086832 1 2 cbr 1000 ------- 2 1.0 2.0 95 102
+ 0.087273 1 2 cbr 1000 ------- 2 1.0 2.0 120 127
d 0.087273 1 2 cbr 1000 ------- 2 1.0 2.0 120 127
- 0.087296 1 2 cbr 1000 ------- 2 1.0 2.0 111 118
r 0.087632 1 2 cbr 1000 ------- 2 1.0 2.0 96 103
+ 0.088 1 2 cbr 1000 ------- 2 1.0 2.0 121 128
- 0.088096 1 2 cbr 1000 ------- 2 1.0 2.0 112 119
r 0.088432 1 2 cbr 1000 ------- 2 1.0 2.0 97 104
+ 0.088727 1 2 cbr 1000 ------- 2 1.0 2.0 122 129
- 0.088896 1 2 cbr 1000 ------- 2 1.0 2.0 113 120
r 0.089232 1 2 cbr 1000 ------- 2 1.0 2.0 98 105
+ 0.089455 1 2 cbr 1000 ------- 2 1.0 2.0 123 130
- 0.089696 1 2 cbr 1000 ------- 2 1.0 2.0 114 121
r 0.090064 1 2 tcp 1040 ------- 3 4.0 5.0 1 89
+ 0.090064 2 5 tcp 1040 ------- 3 4.0 5.0 1 89
- 0.090064 2 5 tcp 1040 ------- 3 4.0 5.0 1 89
+ 0.090182 1 2 cbr 1000 ------- 2 1.0 2.0 124 131
- 0.090496 1 2 cbr 1000 ------- 2 1.0 2.0 115 122
r 0.090896 1 2 tcp 1040 ------- 3 4.0 5.0 2 90
+ 0.090896 2 5 tcp 1040 ------- 3 4.0 5.0 2 90
- 0.090896 2 5 tcp 1040 ------- 3 4.0 5.0 2 90
+ 0.090909 1 2 cbr 1000 ------- 2 1.0 2.0 125 132
- 0.091296 1 2 cbr 1000 ------- 2 1.0 2.0 116 123
+ 0.091636 1 2 cbr 1000 ------- 2 1.0 2.0 126 133
r 0.091696 1 2 cbr 1000 ------- 2 1.0 2.0 102 109
- 0.092096 1 2 cbr 1000 ------- 2 1.0 2.0 117 124
+ 0.092364 1 2 cbr 1000 ------- 2 1.0 2.0 127 134
r 0.092496 1 2 tcp 1000 ------- 2 0.0 3.0 1 94
+ 0.092496 2 3 tcp 1000 ------- 2 0.0 3.0 1 94
- 0.092496 2 3 tcp 1000 ------- 2 0.0 3.0 1 94
- 0.092896 1 2 cbr 1000 ------- 2 1.0 2.0 118 125
+ 0.093091 1 2 cbr 1000 ------- 2 1.0 2.0 128 135
r 0.093296 1 2 cbr 1000 ------- 2 1.0 2.0 104 111
- 0.093696 1 2 cbr 1000 ------- 2 1.0 2.0 119 126
+ 0.093818 1 2 cbr 1000 ------- 2 1.0 2.0 129 136
r 0.094096 1 2 cbr 1000 ------- 2 1.0 2.0 105 112
- 0.094496 1 2 cbr 1000 ------- 2 1.0 2.0 121 128
+ 0.094545 1 2 cbr 1000 ------- 2 1.0 2.0 130 137
r 0.094896 1 2 cbr 1000 ------- 2 1.0 2.0 106 113
+ 0.095273 1 2 cbr 1000 ------- 2 1.0 2.0 131 138
d 0.095273 1 2 cbr 1000 ------- 2 1.0 2.0 131 138
- 0.095296 1 2 cbr 1000 ------- 2 1.0 2.0 122 129
r 0.095696 1 2 cbr 1000 ------- 2 1.0 2.0 107 114
+ 0.096 1 2 cbr 1000 ------- 2 1.0 2.0 132 139
- 0.096096 1 2 cbr 1000 ------- 2 1.0 2.0 123 130
r 0.096496 1 2 cbr 1000 ------- 2 1.0 2.0 108 115
+ 0.096727 1 2 cbr 1000 ------- 2 1.0 2.0 133 140
- 0.096896 1 2 cbr 1000 ------- 2 1.0 2.0 124 131
r 0.097296 1 2 cbr 1000 ------- 2 1.0 2.0 109 116
+ 0.097455 1 2 cbr 1000 ------- 2 1.0 2.0 134 141
- 0.097696 1 2 cbr 1000 ------- 2 1.0 2.0 125 132
r 0.098096 1 2 cbr 1000 ------- 2 1.0 2.0 111 118
+ 0.098182 1 2 cbr 1000 ------- 2 1.0 2.0 135 142
- 0.098496 1 2 cbr 1000 ------- 2 1.0 2.0 126 133
r 0.098896 1 2 cbr 1000 ------- 2 1.0 2.0 112 119
+ 0.098909 1 2 cbr 1000 ------- 2 1.0 2.0 136 143
- 0.099296 1 2 cbr 1000 ------- 2 1.0 2.0 127 134
+ 0.099636 1 2 cbr 1000 ------- 2 1.0 2.0 137 144
r 0.099696 1 2 cbr 1000 ------- 2 1.0 2.0 113 120
- 0.100096 1 2 cbr 1000 ------- 2 1.0 2.0 128 135
+ 0.100364 1 2 cbr 1000 ------- 2 1.0 2.0 138 145
r 0.100496 1 2 cbr 1000 ------- 2 1.0 2.0 114 121
- 0.100896 1 2 cbr 1000 ------- 2 1.0 2.0 129 136
r 0.100896 2 5 tcp 1040 ------- 3 4.0 5.0 1 89
+ 0.100896 5 2 ack 40 ------- 3 5.0 4.0 1 146
- 0.100896 5 2 ack 40 ------- 3 5.0 4.0 1 146
+ 0.101091 1 2 cbr 1000 ------- 2 1.0 2.0 139 147
r 0.101296 1 2 cbr 1000 ------- 2 1.0 2.0 115 122
- 0.101696 1 2 cbr 1000 ------- 2 1.0 2.0 130 137
r 0.101728 2 5 tcp 1040 ------- 3 4.0 5.0 2 90
+ 0.101728 5 2 ack 40 ------- 3 5.0 4.0 2 148
- 0.101728 5 2 ack 40 ------- 3 5.0 4.0 2 148
+ 0.101818 1 2 cbr 1000 ------- 2 1.0 2.0 140 149
r 0.102096 1 2 cbr 1000 ------- 2 1.0 2.0 116 123
- 0.102496 1 2 cbr 1000 ------- 2 1.0 2.0 132 139
+ 0.102545 1 2 cbr 1000 ------- 2 1.0 2.0 141 150
r 0.102896 1 2 cbr 1000 ------- 2 1.0 2.0 117 124
+ 0.103273 1 2 cbr 1000 ------- 2 1.0 2.0 142 151
d 0.103273 1 2 cbr 1000 ------- 2 1.0 2.0 142 151
- 0.103296 1 2 cbr 1000 ------- 2 1.0 2.0 133 140
r 0.103296 2 3 tcp 1000 ------- 2 0.0 3.0 1 94
+ 0.103296 3 2 ack 40 ------- 2 3.0 0.0 1 152
- 0.103296 3 2 ack 40 ------- 2 3.0 0.0 1 152
r 0.103696 1 2 cbr 1000 ------- 2 1.0 2.0 118 125
+ 0.104 1 2 cbr 1000 ------- 2 1.0 2.0 143 153
- 0.104096 1 2 cbr 1000 ------- 2 1.0 2.0 134 141
r 0.104496 1 2 cbr 1000 ------- 2 1.0 2.0 119 126
+ 0.104727 1 2 cbr 1000 ------- 2 1.0 2.0 144 154
- 0.104896 1 2 cbr 1000 ------- 2 1.0 2.0 135 142
r 0.105296 1 2 cbr 1000 ------- 2 1.0 2.0 121 128
+ 0.105455 1 2 cbr 1000 ------- 2 1.0 2.0 145 155
- 0.105696 1 2 cbr 1000 ------- 2 1.0 2.0 136 143
r 0.106096 1 2 cbr 1000 ------- 2 1.0 2.0 122 129
+ 0.106182 1 2 cbr 1000 ------- 2 1.0 2.0 146 156
- 0.106496 1 2 cbr 1000 ------- 2 1.0 2.0 137 144
r 0.106896 1 2 cbr 1000 ------- 2 1.0 2.0 123 130
+ 0.106909 1 2 cbr 1000 ------- 2 1.0 2.0 147 157
- 0.107296 1 2 cbr 1000 ------- 2 1.0 2.0 138 145
+ 0.107636 1 2 cbr 1000 ------- 2 1.0 2.0 148 158
r 0.107696 1 2 cbr 1000 ------- 2 1.0 2.0 124 131
- 0.108096 1 2 cbr 1000 ------- 2 1.0 2.0 139 147
+ 0.108364 1 2 cbr 1000 ------- 2 1.0 2.0 149 159
r 0.108496 1 2 cbr 1000 ------- 2 1.0 2.0 125 132
- 0.108896 1 2 cbr 1000 ------- 2 1.0 2.0 140 149
+ 0.109091 1 2 cbr 1000 ------- 2 1.0 2.0 150 160
r 0.109296 1 2 cbr 1000 ------- 2 1.0 2.0 126 133
- 0.109696 1 2 cbr 1000 ------- 2 1.0 2.0 141 150
+ 0.109818 1 2 cbr 1000 ------- 2 1.0 2.0 151 161
r 0.110096 1 2 cbr 1000 ------- 2 1.0 2.0 127 134
- 0.110496 1 2 cbr 1000 ------- 2 1.0 2.0 143 153
+ 0.110545 1 2 cbr 1000 ------- 2 1.0 2.0 152 162
r 0.110896 1 2 cbr 1000 ------- 2 1.0 2.0 128 135
r 0.110928 5 2 ack 40 ------- 3 5.0 4.0 1 146
+ 0.110928 2 1 ack 40 ------- 3 5.0 4.0 1 146
- 0.110928 2 1 ack 40 ------- 3 5.0 4.0 1 146
+ 0.111273 1 2 cbr 1000 ------- 2 1.0 2.0 153 163
d 0.111273 1 2 cbr 1000 ------- 2 1.0 2.0 153 163
- 0.111296 1 2 cbr 1000 ------- 2 1.0 2.0 144 154
r 0.111696 1 2 cbr 1000 ------- 2 1.0 2.0 129 136
r 0.11176 5 2 ack 40 ------- 3 5.0 4.0 2 148
+ 0.11176 2 1 ack 40 ------- 3 5.0 4.0 2 148
- 0.11176 2 1 ack 40 ------- 3 5.0 4.0 2 148
+ 0.112 1 2 cbr 1000 ------- 2 1.0 2.0 154 164
- 0.112096 1 2 cbr 1000 ------- 2 1.0 2.0 145 155
r 0.112496 1 2 cbr 1000 ------- 2 1.0 2.0 130 137
+ 0.112727 1 2 cbr 1000 ------- 2 1.0 2.0 155 165
- 0.112896 1 2 cbr 1000 ------- 2 1.0 2.0 146 156
r 0.113296 1 2 cbr 1000 ------- 2 1.0 2.0 132 139
r 0.113328 3 2 ack 40 ------- 2 3.0 0.0 1 152
+ 0.113328 2 1 ack 40 ------- 2 3.0 0.0 1 152
- 0.113328 2 1 ack 40 ------- 2 3.0 0.0 1 152
+ 0.113455 1 2 cbr 1000 ------- 2 1.0 2.0 156 166
- 0.113696 1 2 cbr 1000 ------- 2 1.0 2.0 147 157
r 0.114096 1 2 cbr 1000 ------- 2 1.0 2.0 133 140
+ 0.114182 1 2 cbr 1000 ------- 2 1.0 2.0 157 167
- 0.114496 1 2 cbr 1000 ------- 2 1.0 2.0 148 158
r 0.114896 1 2 cbr 1000 ------- 2 1.0 2.0 134 141
+ 0.114909 1 2 cbr 1000 ------- 2 1.0 2.0 158 168
- 0.115296 1 2 cbr 1000 ------- 2 1.0 2.0 149 159
+ 0.115636 1 2 cbr 1000 ------- 2 1.0 2.0 159 169
r 0.115696 1 2 cbr 1000 ------- 2 1.0 2.0 135 142
- 0.116096 1 2 cbr 1000 ------- 2 1.0 2.0 150 160
+ 0.116364 1 2 cbr 1000 ------- 2 1.0 2.0 160 170
r 0.116496 1 2 cbr 1000 ------- 2 1.0 2.0 136 143
- 0.116896 1 2 cbr 1000 ------- 2 1.0 2.0 151 161
+ 0.117091 1 2 cbr 1000 ------- 2 1.0 2.0 161 171
r 0.117296 1 2 cbr 1000 ------- 2 1.0 2.0 137 144
- 0.117696 1 2 cbr 1000 ------- 2 1.0 2.0 152 162
+ 0.117818 1 2 cbr 1000 ------- 2 1.0 2.0 162 172
r 0.118096 1 2 cbr 1000 ------- 2 1.0 2.0 138 145
- 0.118496 1 2 cbr 1000 ------- 2 1.0 2.0 154 164
+ 0.118545 1 2 cbr 1000 ------- 2 1.0 2.0 163 173
r 0.118896 1 2 cbr 1000 ------- 2 1.0 2.0 139 147
+ 0.119273 1 2 cbr 1000 ------- 2 1.0 2.0 164 174
d 0.119273 1 2 cbr 1000 ------- 2 1.0 2.0 164 174
- 0.119296 1 2 cbr 1000 ------- 2 1.0 2.0 155 165
r 0.119696 1 2 cbr 1000 ------- 2 1.0 2.0 140 149
+ 0.12 1 2 cbr 1000 ------- 2 1.0 2.0 165 175
- 0.120096 1 2 cbr 1000 ------- 2 1.0 2.0 156 166
r 0.120496 1 2 cbr 1000 ------- 2 1.0 2.0 141 150
+ 0.120727 1 2 cbr 1000 ------- 2 1.0 2.0 166 176
- 0.120896 1 2 cbr 1000 ------- 2 1.0 2.0 157 167
r 0.12096 2 1 ack 40 ------- 3 5.0 4.0 1 146
+ 0.12096 1 4 ack 40 ------- 3 5.0 4.0 1 146
- 0.12096 1 4 ack 40 ------- 3 5.0 4.0 1 146
r 0.121296 1 2 cbr 1000 ------- 2 1.0 2.0 143 153
+ 0.121455 1 2 cbr 1000 ------- 2 1.0 2.0 167 177
- 0.121696 1 2 cbr 1000 ------- 2 1.0 2.0 158 168
r 0.121792 2 1 ack 40 ------- 3 5.0 4.0 2 148
+ 0.121792 1 4 ack 40 ------- 3 5.0 4.0 2 148
- 0.121792 1 4 ack 40 ------- 3 5.0 4.0 2 148
r 0.122096 1 2 cbr 1000 ------- 2 1.0 2.0 144 154
+ 0.122182 1 2 cbr 1000 ------- 2 1.0 2.0 168 178
- 0.122496 1 2 cbr 1000 ------- 2 1.0 2.0 159 169
r 0.122896 1 2 cbr 1000 ------- 2 1.0 2.0 145 155
+ 0.122909 1 2 cbr 1000 ------- 2 1.0 2.0 169 179
- 0.123296 1 2 cbr 1000 ------- 2 1.0 2.0 160 170
r 0.12336 2 1 ack 40 ------- 2 3.0 0.0 1 152
+ 0.12336 1 0 ack 40 ------- 2 3.0 0.0 1 152
- 0.12336 1 0 ack 40 ------- 2 3.0 0.0 1 152
+ 0.123636 1 2 cbr 1000 ------- 2 1.0 2.0 170 180
r 0.123696 1 2 cbr 1000 ------- 2 1.0 2.0 146 156
- 0.124096 1 2 cbr 1000 ------- 2 1.0 2.0 161 171
+ 0.124364 1 2 cbr 1000 ------- 2 1.0 2.0 171 181
r 0.124496 1 2 cbr 1000 ------- 2 1.0 2.0 147 157
- 0.124896 1 2 cbr 1000 ------- 2 1.0 2.0 162 172
+ 0.125091 1 2 cbr 1000 ------- 2 1.0 2.0 172 182
r 0.125296 1 2 cbr 1000 ------- 2 1.0 2.0 148 158
- 0.125696 1 2 cbr 1000 ------- 2 1.0 2.0 163 173
+ 0.125818 1 2 cbr 1000 ------- 2 1.0 2.0 173 183
r 0.126096 1 2 cbr 1000 ------- 2 1.0 2.0 149 159
- 0.126496 1 2 cbr 1000 ------- 2 1.0 2.0 165 175
+ 0.126545 1 2 cbr 1000 ------- 2 1.0 2.0 174 184
r 0.126896 1 2 cbr 1000 ------- 2 1.0 2.0 150 160
+ 0.127273 1 2 cbr 1000 ------- 2 1.0 2.0 175 185
d 0.127273 1 2 cbr 1000 ------- 2 1.0 2.0 175 185
- 0.127296 1 2 cbr 1000 ------- 2 1.0 2.0 166 176
r 0.127696 1 2 cbr 1000 ------- 2 1.0 2.0 151 161
+ 0.128 1 2 cbr 1000 ------- 2 1.0 2.0 176 186
- 0.128096 1 2 cbr 1000 ------- 2 1.0 2.0 167 177
r 0.128496 1 2 cbr 1000 ------- 2 1.0 2.0 152 162
+ 0.128727 1 2 cbr 1000 ------- 2 1.0 2.0 177 187
- 0.128896 1 2 cbr 1000 ------- 2 1.0 2.0 168 178
r 0.129296 1 2 cbr 1000 ------- 2 1.0 2.0 154 164
+ 0.129455 1 2 cbr 1000 ------- 2 1.0 2.0 178 188
- 0.129696 1 2 cbr 1000 ------- 2 1.0 2.0 169 179
r 0.130096 1 2 cbr 1000 ------- 2 1.0 2.0 155 165
+ 0.130182 1 2 cbr 1000 ------- 2 1.0 2.0 179 189
- 0.130496 1 2 cbr 1000 ------- 2 1.0 2.0 170 180
r 0.130896 1 2 cbr 1000 ------- 2 1.0 2.0 156 166
+ 0.130909 1 2 cbr 1000 ------- 2 1.0 2.0 180 190
r 0.130992 1 4 ack 40 ------- 3 5.0 4.0 1 146
+ 0.130992 4 1 tcp 1040 ------- 3 4.0 5.0 3 191
- 0.130992 4 1 tcp 1040 ------- 3 4.0 5.0 3 191
+ 0.130992 4 1 tcp 1040 ------- 3 4.0 5.0 4 192
- 0.131296 1 2 cbr 1000 ------- 2 1.0 2.0 171 181
+ 0.131636 1 2 cbr 1000 ------- 2 1.0 2.0 181 193
r 0.131696 1 2 cbr 1000 ------- 2 1.0 2.0 157 167
r 0.131824 1 4 ack 40 ------- 3 5.0 4.0 2 148
+ 0.131824 4 1 tcp 1040 ------- 3 4.0 5.0 5 194
+ 0.131824 4 1 tcp 1040 ------- 3 4.0 5.0 6 195
- 0.131824 4 1 tcp 1040 ------- 3 4.0 5.0 4 192
- 0.132096 1 2 cbr 1000 ------- 2 1.0 2.0 172 182
+ 0.132364 1 2 cbr 1000 ------- 2 1.0 2.0 182 196
r 0.132496 1 2 cbr 1000 ------- 2 1.0 2.0 158 168
- 0.132656 4 1 tcp 1040 ------- 3 4.0 5.0 5 194
- 0.132896 1 2 cbr 1000 ------- 2 1.0 2.0 173 183
+ 0.133091 1 2 cbr 1000 ------- 2 1.0 2.0 183 197
r 0.133296 1 2 cbr 1000 ------- 2 1.0 2.0 159 169
r 0.133392 1 0 ack 40 ------- 2 3.0 0.0 1 152
+ 0.133392 0 1 tcp 1000 ------- 2 0.0 3.0 2 198
- 0.133392 0 1 tcp 1000 ------- 2 0.0 3.0 2 198
+ 0.133392 0 1 tcp 1000 ------- 2 0.0 3.0 3 199
+ 0.133392 0 1 tcp 1000 ------- 2 0.0 3.0 4 200
- 0.133488 4 1 tcp 1040 ------- 3 4.0 5.0 6 195
- 0.133696 1 2 cbr 1000 ------- 2 1.0 2.0 174 184
+ 0.133818 1 2 cbr 1000 ------- 2 1.0 2.0 184 201
r 0.134096 1 2 cbr 1000 ------- 2 1.0 2.0 160 170
- 0.134192 0 1 tcp 1000 ------- 2 0.0 3.0 3 199
- 0.134496 1 2 cbr 1000 ------- 2 1.0 2.0 176 186
+ 0.134545 1 2 cbr 1000 ------- 2 1.0 2.0 185 202
r 0.134896 1 2 cbr 1000 ------- 2 1.0 2.0 161 171
- 0.134992 0 1 tcp 1000 ------- 2 0.0 3.0 4 200
+ 0.135273 1 2 cbr 1000 ------- 2 1.0 2.0 186 203
d 0.135273 1 2 cbr 1000 ------- 2 1.0 2.0 186 203
- 0.135296 1 2 cbr 1000 ------- 2 1.0 2.0 177 187
r 0.135696 1 2 cbr 1000 ------- 2 1.0 2.0 162 172
+ 0.136 1 2 cbr 1000 ------- 2 1.0 2.0 187 204