+ 0 1 2 cbr 1000 ------- 2 1.0 2.0 0 0
- 0 1 2 cbr 1000 ------- 2 1.0 2.0 0 0
+ 0 0 1 tcp 40 ------- 2 0.0 3.0 0 1
- 0 0 1 tcp 40 ------- 2 0.0 3.0 0 1
+ 0 4 1 tcp 40 ------- 3 4.0 5.0 0 2
- 0 4 1 tcp 40 ------- 3 4.0 5.0 0 2
+ 0.000727 1 2 cbr 1000 ------- 2 1.0 2.0 1 3
- 0.0008 1 2 cbr 1000 ------- 2 1.0 2.0 1 3
+ 0.001455 1 2 cbr 1000 ------- 2 1.0 2.0 2 4
- 0.0016 1 2 cbr 1000 ------- 2 1.0 2.0 2 4
+ 0.002182 1 2 cbr 1000 ------- 2 1.0 2.0 3 5
- 0.0024 1 2 cbr 1000 ------- 2 1.0 2.0 3 5
+ 0.002909 1 2 cbr 1000 ------- 2 1.0 2.0 4 6
- 0.0032 1 2 cbr 1000 ------- 2 1.0 2.0 4 6
+ 0.003636 1 2 cbr 1000 ------- 2 1.0 2.0 5 7
- 0.004 1 2 cbr 1000 ------- 2 1.0 2.0 5 7
+ 0.004364 1 2 cbr 1000 ------- 2 1.0 2.0 6 8
- 0.0048 1 2 cbr 1000 ------- 2 1.0 2.0 6 8
+ 0.005091 1 2 cbr 1000 ------- 2 1.0 2.0 7 9
- 0.0056 1 2 cbr 1000 ------- 2 1.0 2.0 7 9
+ 0.005818 1 2 cbr 1000 ------- 2 1.0 2.0 8 10
- 0.0064 1 2 cbr 1000 ------- 2 1.0 2.0 8 10
+ 0.006545 1 2 cbr 1000 ------- 2 1.0 2.0 9 11
- 0.0072 1 2 cbr 1000 ------- 2 1.0 2.0 9 11
+ 0.007273 1 2 cbr 1000 ------- 2 1.0 2.0 10 12
+ 0.008 1 2 cbr 1000 ------- 2 1.0 2.0 11 13
- 0.008 1 2 cbr 1000 ------- 2 1.0 2.0 10 12
+ 0.008727 1 2 cbr 1000 ------- 2 1.0 2.0 12 14
- 0.0088 1 2 cbr 1000 ------- 2 1.0 2.0 11 13
+ 0.009455 1 2 cbr 1000 ------- 2 1.0 2.0 13 15
- 0.0096 1 2 cbr 1000 ------- 2 1.0 2.0 12 14
r 0.010032 0 1 tcp 40 ------- 2 0.0 3.0 0 1
+ 0.010032 1 2 tcp 40 ------- 2 0.0 3.0 0 1
r 0.010032 4 1 tcp 40 ------- 3 4.0 5.0 0 2
+ 0.010032 1 2 tcp 40 ------- 3 4.0 5.0 0 2
+ 0.010182 1 2 cbr 1000 ------- 2 1.0 2.0 14 16
- 0.0104 1 2 cbr 1000 ------- 2 1.0 2.0 13 15
r 0.0108 1 2 cbr 1000 ------- 2 1.0 2.0 0 0
+ 0.010909 1 2 cbr 1000 ------- 2 1.0 2.0 15 17
- 0.0112 1 2 tcp 40 ------- 2 0.0 3.0 0 1
- 0.011232 1 2 tcp 40 ------- 3 4.0 5.0 0 2
- 0.011264 1 2 cbr 1000 ------- 2 1.0 2.0 14 16
r 0.0116 1 2 cbr 1000 ------- 2 1.0 2.0 1 3
+ 0.011636 1 2 cbr 1000 ------- 2 1.0 2.0 16 18
- 0.012064 1 2 cbr 1000 ------- 2 1.0 2.0 15 17
+ 0.012364 1 2 cbr 1000 ------- 2 1.0 2.0 17 19
r 0.0124 1 2 cbr 1000 ------- 2 1.0 2.0 2 4
- 0.012864 1 2 cbr 1000 ------- 2 1.0 2.0 16 18
+ 0.013091 1 2 cbr 1000 ------- 2 1.0 2.0 18 20
r 0.0132 1 2 cbr 1000 ------- 2 1.0 2.0 3 5
- 0.013664 1 2 cbr 1000 ------- 2 1.0 2.0 17 19
+ 0.013818 1 2 cbr 1000 ------- 2 1.0 2.0 19 21
r 0.014 1 2 cbr 1000 ------- 2 1.0 2.0 4 6
- 0.014464 1 2 cbr 1000 ------- 2 1.0 2.0 18 20
+ 0.014545 1 2 cbr 1000 ------- 2 1.0 2.0 20 22
r 0.0148 1 2 cbr 1000 ------- 2 1.0 2.0 5 7
- 0.015264 1 2 cbr 1000 ------- 2 1.0 2.0 19 21
+ 0.015273 1 2 cbr 1000 ------- 2 1.0 2.0 21 23
r 0.0156 1 2 cbr 1000 ------- 2 1.0 2.0 6 8
+ 0.016 1 2 cbr 1000 ------- 2 1.0 2.0 22 24
- 0.016064 1 2 cbr 1000 ------- 2 1.0 2.0 20 22
r 0.0164 1 2 cbr 1000 ------- 2 1.0 2.0 7 9
+ 0.016727 1 2 cbr 1000 ------- 2 1.0 2.0 23 25
- 0.016864 1 2 cbr 1000 ------- 2 1.0 2.0 21 23
r 0.0172 1 2 cbr 1000 ------- 2 1.0 2.0 8 10
+ 0.017455 1 2 cbr 1000 ------- 2 1.0 2.0 24 26
- 0.017664 1 2 cbr 1000 ------- 2 1.0 2.0 22 24
r 0.018 1 2 cbr 1000 ------- 2 1.0 2.0 9 11
+ 0.018182 1 2 cbr 1000 ------- 2 1.0 2.0 25 27
- 0.018464 1 2 cbr 1000 ------- 2 1.0 2.0 23 25
r 0.0188 1 2 cbr 1000 ------- 2 1.0 2.0 10 12
+ 0.018909 1 2 cbr 1000 ------- 2 1.0 2.0 26 28
- 0.019264 1 2 cbr 1000 ------- 2 1.0 2.0 24 26
r 0.0196 1 2 cbr 1000 ------- 2 1.0 2.0 11 13
+ 0.019636 1 2 cbr 1000 ------- 2 1.0 2.0 27 29
- 0.020064 1 2 cbr 1000 ------- 2 1.0 2.0 25 27
+ 0.020364 1 2 cbr 1000 ------- 2 1.0 2.0 28 30
r 0.0204 1 2 cbr 1000 ------- 2 1.0 2.0 12 14
- 0.020864 1 2 cbr 1000 ------- 2 1.0 2.0 26 28
+ 0.021091 1 2 cbr 1000 ------- 2 1.0 2.0 29 31
r 0.0212 1 2 cbr 1000 ------- 2 1.0 2.0 13 15
r 0.021232 1 2 tcp 40 ------- 2 0.0 3.0 0 1
+ 0.021232 2 3 tcp 40 ------- 2 0.0 3.0 0 1
- 0.021232 2 3 tcp 40 ------- 2 0.0 3.0 0 1
r 0.021264 1 2 tcp 40 ------- 3 4.0 5.0 0 2
+ 0.021264 2 5 tcp 40 ------- 3 4.0 5.0 0 2
- 0.021264 2 5 tcp 40 ------- 3 4.0 5.0 0 2
- 0.021664 1 2 cbr 1000 ------- 2 1.0 2.0 27 29
+ 0.021818 1 2 cbr 1000 ------- 2 1.0 2.0 30 32
r 0.022064 1 2 cbr 1000 ------- 2 1.0 2.0 14 16
- 0.022464 1 2 cbr 1000 ------- 2 1.0 2.0 28 30
+ 0.022545 1 2 cbr 1000 ------- 2 1.0 2.0 31 33
r 0.022864 1 2 cbr 1000 ------- 2 1.0 2.0 15 17
- 0.023264 1 2 cbr 1000 ------- 2 1.0 2.0 29 31
+ 0.023273 1 2 cbr 1000 ------- 2 1.0 2.0 32 34
r 0.023664 1 2 cbr 1000 ------- 2 1.0 2.0 16 18
+ 0.024 1 2 cbr 1000 ------- 2 1.0 2.0 33 35
- 0.024064 1 2 cbr 1000 ------- 2 1.0 2.0 30 32
r 0.024464 1 2 cbr 1000 ------- 2 1.0 2.0 17 19
+ 0.024727 1 2 cbr 1000 ------- 2 1.0 2.0 34 36
- 0.024864 1 2 cbr 1000 ------- 2 1.0 2.0 31 33
r 0.025264 1 2 cbr 1000 ------- 2 1.0 2.0 18 20
+ 0.025455 1 2 cbr 1000 ------- 2 1.0 2.0 35 37
- 0.025664 1 2 cbr 1000 ------- 2 1.0 2.0 32 34
r 0.026064 1 2 cbr 1000 ------- 2 1.0 2.0 19 21
+ 0.026182 1 2 cbr 1000 ------- 2 1.0 2.0 36 38
- 0.026464 1 2 cbr 1000 ------- 2 1.0 2.0 33 35
r 0.026864 1 2 cbr 1000 ------- 2 1.0 2.0 20 22
+ 0.026909 1 2 cbr 1000 ------- 2 1.0 2.0 37 39
- 0.027264 1 2 cbr 1000 ------- 2 1.0 2.0 34 36
+ 0.027636 1 2 cbr 1000 ------- 2 1.0 2.0 38 40
r 0.027664 1 2 cbr 1000 ------- 2 1.0 2.0 21 23
- 0.028064 1 2 cbr 1000 ------- 2 1.0 2.0 35 37
+ 0.028364 1 2 cbr 1000 ------- 2 1.0 2.0 39 41
r 0.028464 1 2 cbr 1000 ------- 2 1.0 2.0 22 24
- 0.028864 1 2 cbr 1000 ------- 2 1.0 2.0 36 38
+ 0.029091 1 2 cbr 1000 ------- 2 1.0 2.0 40 42
r 0.029264 1 2 cbr 1000 ------- 2 1.0 2.0 23 25
- 0.029664 1 2 cbr 1000 ------- 2 1.0 2.0 37 39
+ 0.029818 1 2 cbr 1000 ------- 2 1.0 2.0 41 43
r 0.030064 1 2 cbr 1000 ------- 2 1.0 2.0 24 26
- 0.030464 1 2 cbr 1000 ------- 2 1.0 2.0 38 40
+ 0.030545 1 2 cbr 1000 ------- 2 1.0 2.0 42 44
r 0.030864 1 2 cbr 1000 ------- 2 1.0 2.0 25 27
- 0.031264 1 2 cbr 1000 ------- 2 1.0 2.0 39 41
r 0.031264 2 3 tcp 40 ------- 2 0.0 3.0 0 1
+ 0.031264 3 2 ack 40 ------- 2 3.0 0.0 0 45
- 0.031264 3 2 ack 40 ------- 2 3.0 0.0 0 45
+ 0.031273 1 2 cbr 1000 ------- 2 1.0 2.0 43 46
r 0.031296 2 5 tcp 40 ------- 3 4.0 5.0 0 2
+ 0.031296 5 2 ack 40 ------- 3 5.0 4.0 0 47
- 0.031296 5 2 ack 40 ------- 3 5.0 4.0 0 47
r 0.031664 1 2 cbr 1000 ------- 2 1.0 2.0 26 28
+ 0.032 1 2 cbr 1000 ------- 2 1.0 2.0 44 48
- 0.032064 1 2 cbr 1000 ------- 2 1.0 2.0 40 42
r 0.032464 1 2 cbr 1000 ------- 2 1.0 2.0 27 29
+ 0.032727 1 2 cbr 1000 ------- 2 1.0 2.0 45 49
- 0.032864 1 2 cbr 1000 ------- 2 1.0 2.0 41 43
r 0.033264 1 2 cbr 1000 ------- 2 1.0 2.0 28 30
+ 0.033455 1 2 cbr 1000 ------- 2 1.0 2.0 46 50
- 0.033664 1 2 cbr 1000 ------- 2 1.0 2.0 42 44
r 0.034064 1 2 cbr 1000 ------- 2 1.0 2.0 29 31
+ 0.034182 1 2 cbr 1000 ------- 2 1.0 2.0 47 51
- 0.034464 1 2 cbr 1000 ------- 2 1.0 2.0 43 46
r 0.034864 1 2 cbr 1000 ------- 2 1.0 2.0 30 32
+ 0.034909 1 2 cbr 1000 ------- 2 1.0 2.0 48 52
- 0.035264 1 2 cbr 1000 ------- 2 1.0 2.0 44 48
+ 0.035636 1 2 cbr 1000 ------- 2 1.0 2.0 49 53
r 0.035664 1 2 cbr 1000 ------- 2 1.0 2.0 31 33
- 0.036064 1 2 cbr 1000 ------- 2 1.0 2.0 45 49
+ 0.036364 1 2 cbr 1000 ------- 2 1.0 2.0 50 54
r 0.036464 1 2 cbr 1000 ------- 2 1.0 2.0 32 34
- 0.036864 1 2 cbr 1000 ------- 2 1.0 2.0 46 50
+ 0.037091 1 2 cbr 1000 ------- 2 1.0 2.0 51 55
r 0.037264 1 2 cbr 1000 ------- 2 1.0 2.0 33 35
- 0.037664 1 2 cbr 1000 ------- 2 1.0 2.0 47 51
+ 0.037818 1 2 cbr 1000 ------- 2 1.0 2.0 52 56
r 0.038064 1 2 cbr 1000 ------- 2 1.0 2.0 34 36
- 0.038464 1 2 cbr 1000 ------- 2 1.0 2.0 48 52
+ 0.038545 1 2 cbr 1000 ------- 2 1.0 2.0 53 57
r 0.038864 1 2 cbr 1000 ------- 2 1.0 2.0 35 37
- 0.039264 1 2 cbr 1000 ------- 2 1.0 2.0 49 53
+ 0.039273 1 2 cbr 1000 ------- 2 1.0 2.0 54 58
r 0.039664 1 2 cbr 1000 ------- 2 1.0 2.0 36 38
+ 0.04 1 2 cbr 1000 ------- 2 1.0 2.0 55 59
- 0.040064 1 2 cbr 1000 ------- 2 1.0 2.0 50 54
r 0.040464 1 2 cbr 1000 ------- 2 1.0 2.0 37 39
+ 0.040727 1 2 cbr 1000 ------- 2 1.0 2.0 56 60
- 0.040864 1 2 cbr 1000 ------- 2 1.0 2.0 51 55
r 0.041264 1 2 cbr 1000 ------- 2 1.0 2.0 38 40
r 0.041296 3 2 ack 40 ------- 2 3.0 0.0 0 45
+ 0.041296 2 1 ack 40 ------- 2 3.0 0.0 0 45
- 0.041296 2 1 ack 40 ------- 2 3.0 0.0 0 45
r 0.041328 5 2 ack 40 ------- 3 5.0 4.0 0 47
+ 0.041328 2 1 ack 40 ------- 3 5.0 4.0 0 47
- 0.041328 2 1 ack 40 ------- 3 5.0 4.0 0 47
+ 0.041455 1 2 cbr 1000 ------- 2 1.0 2.0 57 61
- 0.041664 1 2 cbr 1000 ------- 2 1.0 2.0 52 56
r 0.042064 1 2 cbr 1000 ------- 2 1.0 2.0 39 41
+ 0.042182 1 2 cbr 1000 ------- 2 1.0 2.0 58 62
- 0.042464 1 2 cbr 1000 ------- 2 1.0 2.0 53 57
r 0.042864 1 2 cbr 1000 ------- 2 1.0 2.0 40 42
+ 0.042909 1 2 cbr 1000 ------- 2 1.0 2.0 59 63
- 0.043264 1 2 cbr 1000 ------- 2 1.0 2.0 54 58
+ 0.043636 1 2 cbr 1000 ------- 2 1.0 2.0 60 64
r 0.043664 1 2 cbr 1000 ------- 2 1.0 2.0 41 43
- 0.044064 1 2 cbr 1000 ------- 2 1.0 2.0 55 59
+ 0.044364 1 2 cbr 1000 ------- 2 1.0 2.0 61 65
r 0.044464 1 2 cbr 1000 ------- 2 1.0 2.0 42 44
- 0.044864 1 2 cbr 1000 ------- 2 1.0 2.0 56 60
+ 0.045091 1 2 cbr 1000 ------- 2 1.0 2.0 62 66
r 0.045264 1 2 cbr 1000 ------- 2 1.0 2.0 43 46
- 0.045664 1 2 cbr 1000 ------- 2 1.0 2.0 57 61
+ 0.045818 1 2 cbr 1000 ------- 2 1.0 2.0 63 67
r 0.046064 1 2 cbr 1000 ------- 2 1.0 2.0 44 48
- 0.046464 1 2 cbr 1000 ------- 2 1.0 2.0 58 62
+ 0.046545 1 2 cbr 1000 ------- 2 1.0 2.0 64 68
r 0.046864 1 2 cbr 1000 ------- 2 1.0 2.0 45 49
- 0.047264 1 2 cbr 1000 ------- 2 1.0 2.0 59 63
+ 0.047273 1 2 cbr 1000 ------- 2 1.0 2.0 65 69
r 0.047664 1 2 cbr 1000 ------- 2 1.0 2.0 46 50
+ 0.048 1 2 cbr 1000 ------- 2 1.0 2.0 66 70
- 0.048064 1 2 cbr 1000 ------- 2 1.0 2.0 60 64
r 0.048464 1 2 cbr 1000 ------- 2 1.0 2.0 47 51
+ 0.048727 1 2 cbr 1000 ------- 2 1.0 2.0 67 71
- 0.048864 1 2 cbr 1000 ------- 2 1.0 2.0 61 65
r 0.049264 1 2 cbr 1000 ------- 2 1.0 2.0 48 52
+ 0.049455 1 2 cbr 1000 ------- 2 1.0 2.0 68 72
- 0.049664 1 2 cbr 1000 ------- 2 1.0 2.0 62 66
r 0.050064 1 2 cbr 1000 ------- 2 1.0 2.0 49 53
+ 0.050182 1 2 cbr 1000 ------- 2 1.0 2.0 69 73
- 0.050464 1 2 cbr 1000 ------- 2 1.0 2.0 63 67
r 0.050864 1 2 cbr 1000 ------- 2 1.0 2.0 50 54
+ 0.050909 1 2 cbr 1000 ------- 2 1.0 2.0 70 74
- 0.051264 1 2 cbr 1000 ------- 2 1.0 2.0 64 68
r 0.051328 2 1 ack 40 ------- 2 3.0 0.0 0 45
+ 0.051328 1 0 ack 40 ------- 2 3.0 0.0 0 45
- 0.051328 1 0 ack 40 ------- 2 3.0 0.0 0 45
r 0.05136 2 1 ack 40 ------- 3 5.0 4.0 0 47
+ 0.05136 1 4 ack 40 ------- 3 5.0 4.0 0 47
- 0.05136 1 4 ack 40 ------- 3 5.0 4.0 0 47
+ 0.051636 1 2 cbr 1000 ------- 2 1.0 2.0 71 75
r 0.051664 1 2 cbr 1000 ------- 2 1.0 2.0 51 55
- 0.052064 1 2 cbr 1000 ------- 2 1.0 2.0 65 69
+ 0.052364 1 2 cbr 1000 ------- 2 1.0 2.0 72 76
r 0.052464 1 2 cbr 1000 ------- 2 1.0 2.0 52 56
- 0.052864 1 2 cbr 1000 ------- 2 1.0 2.0 66 70
+ 0.053091 1 2 cbr 1000 ------- 2 1.0 2.0 73 77
r 0.053264 1 2 cbr 1000 ------- 2 1.0 2.0 53 57
- 0.053664 1 2 cbr 1000 ------- 2 1.0 2.0 67 71
+ 0.053818 1 2 cbr 1000 ------- 2 1.0 2.0 74 78
r 0.054064 1 2 cbr 1000 ------- 2 1.0 2.0 54 58
- 0.054464 1 2 cbr 1000 ------- 2 1.0 2.0 68 72
+ 0.054545 1 2 cbr 1000 ------- 2 1.0 2.0 75 79
r 0.054864 1 2 cbr 1000 ------- 2 1.0 2.0 55 59
- 0.055264 1 2 cbr 1000 ------- 2 1.0 2.0 69 73
+ 0.055273 1 2 cbr 1000 ------- 2 1.0 2.0 76 80
r 0.055664 1 2 cbr 1000 ------- 2 1.0 2.0 56 60
+ 0.056 1 2 cbr 1000 ------- 2 1.0 2.0 77 81
- 0.056064 1 2 cbr 1000 ------- 2 1.0 2.0 70 74
r 0.056464 1 2 cbr 1000 ------- 2 1.0 2.0 57 61
+ 0.056727 1 2 cbr 1000 ------- 2 1.0 2.0 78 82
- 0.056864 1 2 cbr 1000 ------- 2 1.0 2.0 71 75
r 0.057264 1 2 cbr 1000 ------- 2 1.0 2.0 58 62
+ 0.057455 1 2 cbr 1000 ------- 2 1.0 2.0 79 83
- 0.057664 1 2 cbr 1000 ------- 2 1.0 2.0 72 76
r 0.058064 1 2 cbr 1000 ------- 2 1.0 2.0 59 63
+ 0.058182 1 2 cbr 1000 ------- 2 1.0 2.0 80 84
- 0.058464 1 2 cbr 1000 ------- 2 1.0 2.0 73 77
r 0.058864 1 2 cbr 1000 ------- 2 1.0 2.0 60 64
+ 0.058909 1 2 cbr 1000 ------- 2 1.0 2.0 81 85
- 0.059264 1 2 cbr 1000 ------- 2 1.0 2.0 74 78
+ 0.059636 1 2 cbr 1000 ------- 2 1.0 2.0 82 86
r 0.059664 1 2 cbr 1000 ------- 2 1.0 2.0 61 65
- 0.060064 1 2 cbr 1000 ------- 2 1.0 2.0 75 79
+ 0.060364 1 2 cbr 1000 ------- 2 1.0 2.0 83 87
r 0.060464 1 2 cbr 1000 ------- 2 1.0 2.0 62 66
- 0.060864 1 2 cbr 1000 ------- 2 1.0 2.0 76 80
+ 0.061091 1 2 cbr 1000 ------- 2 1.0 2.0 84 88
r 0.061264 1 2 cbr 1000 ------- 2 1.0 2.0 63 67
r 0.06136 1 0 ack 40 ------- 2 3.0 0.0 0 45
+ 0.06136 0 1 tcp 1040 ------- 2 0.0 3.0 1 89
- 0.06136 0 1 tcp 1040 ------- 2 0.0 3.0 1 89
+ 0.06136 0 1 tcp 1040 ------- 2 0.0 3.0 2 90
r 0.061392 1 4 ack 40 ------- 3 5.0 4.0 0 47
+ 0.061392 4 1 tcp 1040 ------- 3 4.0 5.0 1 91
- 0.061392 4 1 tcp 1040 ------- 3 4.0 5.0 1 91
+ 0.061392 4 1 tcp 1040 ------- 3 4.0 5.0 2 92
- 0.061664 1 2 cbr 1000 ------- 2 1.0 2.0 77 81
+ 0.061818 1 2 cbr 1000 ------- 2 1.0 2.0 85 93
r 0.062064 1 2 cbr 1000 ------- 2 1.0 2.0 64 68
- 0.062192 0 1 tcp 1040 ------- 2 0.0 3.0 2 90
- 0.062224 4 1 tcp 1040 ------- 3 4.0 5.0 2 92
- 0.062464 1 2 cbr 1000 ------- 2 1.0 2.0 78 82
+ 0.062545 1 2 cbr 1000 ------- 2 1.0 2.0 86 94
r 0.062864 1 2 cbr 1000 ------- 2 1.0 2.0 65 69
- 0.063264 1 2 cbr 1000 ------- 2 1.0 2.0 79 83
+ 0.063273 1 2 cbr 1000 ------- 2 1.0 2.0 87 95
r 0.063664 1 2 cbr 1000 ------- 2 1.0 2.0 66 70
+ 0.064 1 2 cbr 1000 ------- 2 1.0 2.0 88 96
- 0.064064 1 2 cbr 1000 ------- 2 1.0 2.0 80 84
r 0.064464 1 2 cbr 1000 ------- 2 1.0 2.0 67 71
+ 0.064727 1 2 cbr 1000 ------- 2 1.0 2.0 89 97
- 0.064864 1 2 cbr 1000 ------- 2 1.0 2.0 81 85
r 0.065264 1 2 cbr 1000 ------- 2 1.0 2.0 68 72
+ 0.065455 1 2 cbr 1000 ------- 2 1.0 2.0 90 98
- 0.065664 1 2 cbr 1000 ------- 2 1.0 2.0 82 86
r 0.066064 1 2 cbr 1000 ------- 2 1.0 2.0 69 73
+ 0.066182 1 2 cbr 1000 ------- 2 1.0 2.0 91 99
- 0.066464 1 2 cbr 1000 ------- 2 1.0 2.0 83 87
r 0.066864 1 2 cbr 1000 ------- 2 1.0 2.0 70 74
+ 0.066909 1 2 cbr 1000 ------- 2 1.0 2.0 92 100
- 0.067264 1 2 cbr 1000 ------- 2 1.0 2.0 84 88
+ 0.067636 1 2 cbr 1000 ------- 2 1.0 2.0 93 101
r 0.067664 1 2 cbr 1000 ------- 2 1.0 2.0 71 75
- 0.068064 1 2 cbr 1000 ------- 2 1.0 2.0 85 93
+ 0.068364 1 2 cbr 1000 ------- 2 1.0 2.0 94 102
r 0.068464 1 2 cbr 1000 ------- 2 1.0 2.0 72 76
- 0.068864 1 2 cbr 1000 ------- 2 1.0 2.0 86 94
+ 0.069091 1 2 cbr 1000 ------- 2 1.0 2.0 95 103
r 0.069264 1 2 cbr 1000 ------- 2 1.0 2.0 73 77
- 0.069664 1 2 cbr 1000 ------- 2 1.0 2.0 87 95
+ 0.069818 1 2 cbr 1000 ------- 2 1.0 2.0 96 104
r 0.070064 1 2 cbr 1000 ------- 2 1.0 2.0 74 78
- 0.070464 1 2 cbr 1000 ------- 2 1.0 2.0 88 96
+ 0.070545 1 2 cbr 1000 ------- 2 1.0 2.0 97 105
r 0.070864 1 2 cbr 1000 ------- 2 1.0 2.0 75 79
- 0.071264 1 2 cbr 1000 ------- 2 1.0 2.0 89 97
+ 0.071273 1 2 cbr 1000 ------- 2 1.0 2.0 98 106
r 0.071664 1 2 cbr 1000 ------- 2 1.0 2.0 76 80
+ 0.072 1 2 cbr 1000 ------- 2 1.0 2.0 99 107
d 0.072 1 2 cbr 1000 ------- 2 1.0 2.0 99 107
- 0.072064 1 2 cbr 1000 ------- 2 1.0 2.0 90 98
r 0.072192 0 1 tcp 1040 ------- 2 0.0 3.0 1 89
+ 0.072192 1 2 tcp 1040 ------- 2 0.0 3.0 1 89
r 0.072224 4 1 tcp 1040 ------- 3 4.0 5.0 1 91
+ 0.072224 1 2 tcp 1040 ------- 3 4.0 5.0 1 91
d 0.072224 1 2 tcp 1040 ------- 3 4.0 5.0 1 91
r 0.072464 1 2 cbr 1000 ------- 2 1.0 2.0 77 81
+ 0.072727 1 2 cbr 1000 ------- 2 1.0 2.0 100 108
d 0.072727 1 2 cbr 1000 ------- 2 1.0 2.0 100 108
- 0.072864 1 2 cbr 1000 ------- 2 1.0 2.0 91 99
r 0.073024 0 1 tcp 1040 ------- 2 0.0 3.0 2 90
+ 0.073024 1 2 tcp 1040 ------- 2 0.0 3.0 2 90
r 0.073056 4 1 tcp 1040 ------- 3 4.0 5.0 2 92
+ 0.073056 1 2 tcp 1040 ------- 3 4.0 5.0 2 92
d 0.073056 1 2 tcp 1040 ------- 3 4.0 5.0 2 92
r 0.073264 1 2 cbr 1000 ------- 2 1.0 2.0 78 82
+ 0.073455 1 2 cbr 1000 ------- 2 1.0 2.0 101 109
d 0.073455 1 2 cbr 1000 ------- 2 1.0 2.0 101 109
- 0.073664 1 2 cbr 1000 ------- 2 1.0 2.0 92 100
r 0.074064 1 2 cbr 1000 ------- 2 1.0 2.0 79 83
+ 0.074182 1 2 cbr 1000 ------- 2 1.0 2.0 102 110
- 0.074464 1 2 cbr 1000 ------- 2 1.0 2.0 93 101
r 0.074864 1 2 cbr 1000 ------- 2 1.0 2.0 80 84
+ 0.074909 1 2 cbr 1000 ------- 2 1.0 2.0 103 111
- 0.075264 1 2 cbr 1000 ------- 2 1.0 2.0 94 102
+ 0.075636 1 2 cbr 1000 ------- 2 1.0 2.0 104 112
r 0.075664 1 2 cbr 1000 ------- 2 1.0 2.0 81 85
- 0.076064 1 2 cbr 1000 ------- 2 1.0 2.0 95 103
+ 0.076364 1 2 cbr 1000 ------- 2 1.0 2.0 105 113
r 0.076464 1 2 cbr 1000 ------- 2 1.0 2.0 82 86
- 0.076864 1 2 cbr 1000 ------- 2 1.0 2.0 96 104
+ 0.077091 1 2 cbr 1000 ------- 2 1.0 2.0 106 114
r 0.077264 1 2 cbr 1000 ------- 2 1.0 2.0 83 87
- 0.077664 1 2 cbr 1000 ------- 2 1.0 2.0 97 105
+ 0.077818 1 2 cbr 1000 ------- 2 1.0 2.0 107 115
r 0.078064 1 2 cbr 1000 ------- 2 1.0 2.0 84 88
- 0.078464 1 2 cbr 1000 ------- 2 1.0 2.0 98 106
+ 0.078545 1 2 cbr 1000 ------- 2 1.0 2.0 108 116
r 0.078864 1 2 cbr 1000 ------- 2 1.0 2.0 85 93
- 0.079264 1 2 tcp 1040 ------- 2 0.0 3.0 1 89
+ 0.079273 1 2 cbr 1000 ------- 2 1.0 2.0 109 117
r 0.079664 1 2 cbr 1000 ------- 2 1.0 2.0 86 94
+ 0.08 1 2 cbr 1000 ------- 2 1.0 2.0 110 118
d 0.08 1 2 cbr 1000 ------- 2 1.0 2.0 110 118
- 0.080096 1 2 tcp 1040 ------- 2 0.0 3.0 2 90
r 0.080464 1 2 cbr 1000 ------- 2 1.0 2.0 87 95
+ 0.080727 1 2 cbr 1000 ------- 2 1.0 2.0 111 119
- 0.080928 1 2 cbr 1000 ------- 2 1.0 2.0 102 110
r 0.081264 1 2 cbr 1000 ------- 2 1.0 2.0 88 96
+ 0.081455 1 2 cbr 1000 ------- 2 1.0 2.0 112 120
- 0.081728 1 2 cbr 1000 ------- 2 1.0 2.0 103 111
r 0.082064 1 2 cbr 1000 ------- 2 1.0 2.0 89 97
+ 0.082182 1 2 cbr 1000 ------- 2 1.0 2.0 113 121
- 0.082528 1 2 cbr 1000 ------- 2 1.0 2.0 104 112
r 0.082864 1 2 cbr 1000 ------- 2 1.0 2.0 90 98
+ 0.082909 1 2 cbr 1000 ------- 2 1.0 2.0 114 122
- 0.083328 1 2 cbr 1000 ------- 2 1.0 2.0 105 113
+ 0.083636 1 2 cbr 1000 ------- 2 1.0 2.0 115 123
r 0.083664 1 2 cbr 1000 ------- 2 1.0 2.0 91 99
- 0.084128 1 2 cbr 1000 ------- 2 1.0 2.0 106 114
+ 0.084364 1 2 cbr 1000 ------- 2 1.0 2.0 116 124
r 0.084464 1 2 cbr 1000 ------- 2 1.0 2.0 92 100
- 0.084928 1 2 cbr 1000 ------- 2 1.0 2.0 107 115
+ 0.085091 1 2 cbr 1000 ------- 2 1.0 2.0 117 125
r 0.085264 1 2 cbr 1000 ------- 2 1.0 2.0 93 101
- 0.085728 1 2 cbr 1000 ------- 2 1.0 2.0 108 116
+ 0.085818 1 2 cbr 1000 ------- 2 1.0 2.0 118 126
r 0.086064 1 2 cbr 1000 ------- 2 1.0 2.0 94 102
- 0.086528 1 2 cbr 1000 ------- 2 1.0 2.0 109 117
+ 0.086545 1 2 cbr 1000 ------- 2 1.0 2.0 119 127
r 0.086864 1 2 cbr 1000 ------- 2 1.0 2.0 95 103
+ 0.087273 1 2 cbr 1000 ------- 2 1.0 2.0 120 128
d 0.087273 1 2 cbr 1000 ------- 2 1.0 2.0 120 128
- 0.087328 1 2 cbr 1000 ------- 2 1.0 2.0 111 119
r 0.087664 1 2 cbr 1000 ------- 2 1.0 2.0 96 104
+ 0.088 1 2 cbr 1000 ------- 2 1.0 2.0 121 129
- 0.088128 1 2 cbr 1000 ------- 2 1.0 2.0 112 120
r 0.088464 1 2 cbr 1000 ------- 2 1.0 2.0 97 105
+ 0.088727 1 2 cbr 1000 ------- 2 1.0 2.0 122 130
- 0.088928 1 2 cbr 1000 ------- 2 1.0 2.0 113 121
r 0.089264 1 2 cbr 1000 ------- 2 1.0 2.0 98 106
+ 0.089455 1 2 cbr 1000 ------- 2 1.0 2.0 123 131
- 0.089728 1 2 cbr 1000 ------- 2 1.0 2.0 114 122
r 0.090096 1 2 tcp 1040 ------- 2 0.0 3.0 1 89
+ 0.090096 2 3 tcp 1040 ------- 2 0.0 3.0 1 89
- 0.090096 2 3 tcp 1040 ------- 2 0.0 3.0 1 89
+ 0.090182 1 2 cbr 1000 ------- 2 1.0 2.0 124 132
- 0.090528 1 2 cbr 1000 ------- 2 1.0 2.0 115 123
+ 0.090909 1 2 cbr 1000 ------- 2 1.0 2.0 125 133
r 0.090928 1 2 tcp 1040 ------- 2 0.0 3.0 2 90
+ 0.090928 2 3 tcp 1040 ------- 2 0.0 3.0 2 90
- 0.090928 2 3 tcp 1040 ------- 2 0.0 3.0 2 90
- 0.091328 1 2 cbr 1000 ------- 2 1.0 2.0 116 124
+ 0.091636 1 2 cbr 1000 ------- 2 1.0 2.0 126 134
r 0.091728 1 2 cbr 1000 ------- 2 1.0 2.0 102 110
- 0.092128 1 2 cbr 1000 ------- 2 1.0 2.0 117 125
+ 0.092364 1 2 cbr 1000 ------- 2 1.0 2.0 127 135
r 0.092528 1 2 cbr 1000 ------- 2 1.0 2.0 103 111
- 0.092928 1 2 cbr 1000 ------- 2 1.0 2.0 118 126
+ 0.093091 1 2 cbr 1000 ------- 2 1.0 2.0 128 136
r 0.093328 1 2 cbr 1000 ------- 2 1.0 2.0 104 112
- 0.093728 1 2 cbr 1000 ------- 2 1.0 2.0 119 127
+ 0.093818 1 2 cbr 1000 ------- 2 1.0 2.0 129 137
r 0.094128 1 2 cbr 1000 ------- 2 1.0 2.0 105 113
- 0.094528 1 2 cbr 1000 ------- 2 1.0 2.0 121 129
+ 0.094545 1 2 cbr 1000 ------- 2 1.0 2.0 130 138
r 0.094928 1 2 cbr 1000 ------- 2 1.0 2.0 106 114
+ 0.095273 1 2 cbr 1000 ------- 2 1.0 2.0 131 139
d 0.095273 1 2 cbr 1000 ------- 2 1.0 2.0 131 139
- 0.095328 1 2 cbr 1000 ------- 2 1.0 2.0 122 130
r 0.095728 1 2 cbr 1000 ------- 2 1.0 2.0 107 115
+ 0.096 1 2 cbr 1000 ------- 2 1.0 2.0 132 140
- 0.096128 1 2 cbr 1000 ------- 2 1.0 2.0 123 131
r 0.096528 1 2 cbr 1000 ------- 2 1.0 2.0 108 116
+ 0.096727 1 2 cbr 1000 ------- 2 1.0 2.0 133 141
- 0.096928 1 2 cbr 1000 ------- 2 1.0 2.0 124 132
r 0.097328 1 2 cbr 1000 ------- 2 1.0 2.0 109 117
+ 0.097455 1 2 cbr 1000 ------- 2 1.0 2.0 134 142
- 0.097728 1 2 cbr 1000 ------- 2 1.0 2.0 125 133
r 0.098128 1 2 cbr 1000 ------- 2 1.0 2.0 111 119
+ 0.098182 1 2 cbr 1000 ------- 2 1.0 2.0 135 143
- 0.098528 1 2 cbr 1000 ------- 2 1.0 2.0 126 134
+ 0.098909 1 2 cbr 1000 ------- 2 1.0 2.0 136 144
r 0.098928 1 2 cbr 1000 ------- 2 1.0 2.0 112 120
- 0.099328 1 2 cbr 1000 ------- 2 1.0 2.0 127 135
+ 0.099636 1 2 cbr 1000 ------- 2 1.0 2.0 137 145
r 0.099728 1 2 cbr 1000 ------- 2 1.0 2.0 113 121
- 0.100128 1 2 cbr 1000 ------- 2 1.0 2.0 128 136
+ 0.100364 1 2 cbr 1000 ------- 2 1.0 2.0 138 146
r 0.100528 1 2 cbr 1000 ------- 2 1.0 2.0 114 122
- 0.100928 1 2 cbr 1000 ------- 2 1.0 2.0 129 137
r 0.100928 2 3 tcp 1040 ------- 2 0.0 3.0 1 89
+ 0.100928 3 2 ack 40 ------- 2 3.0 0.0 1 147
- 0.100928 3 2 ack 40 ------- 2 3.0 0.0 1 147
+ 0.101091 1 2 cbr 1000 ------- 2 1.0 2.0 139 148
r 0.101328 1 2 cbr 1000 ------- 2 1.0 2.0 115 123
- 0.101728 1 2 cbr 1000 ------- 2 1.0 2.0 130 138
r 0.10176 2 3 tcp 1040 ------- 2 0.0 3.0 2 90
+ 0.10176 3 2 ack 40 ------- 2 3.0 0.0 2 149
- 0.10176 3 2 ack 40 ------- 2 3.0 0.0 2 149
+ 0.101818 1 2 cbr 1000 ------- 2 1.0 2.0 140 150
r 0.102128 1 2 cbr 1000 ------- 2 1.0 2.0 116 124
- 0.102528 1 2 cbr 1000 ------- 2 1.0 2.0 132 140
+ 0.102545 1 2 cbr 1000 ------- 2 1.0 2.0 141 151
r 0.102928 1 2 cbr 1000 ------- 2 1.0 2.0 117 125
+ 0.103273 1 2 cbr 1000 ------- 2 1.0 2.0 142 152
d 0.103273 1 2 cbr 1000 ------- 2 1.0 2.0 142 152
- 0.103328 1 2 cbr 1000 ------- 2 1.0 2.0 133 141
r 0.103728 1 2 cbr 1000 ------- 2 1.0 2.0 118 126
+ 0.104 1 2 cbr 1000 ------- 2 1.0 2.0 143 153
- 0.104128 1 2 cbr 1000 ------- 2 1.0 2.0 134 142
r 0.104528 1 2 cbr 1000 ------- 2 1.0 2.0 119 127
+ 0.104727 1 2 cbr 1000 ------- 2 1.0 2.0 144 154
- 0.104928 1 2 cbr 1000 ------- 2 1.0 2.0 135 143
r 0.105328 1 2 cbr 1000 ------- 2 1.0 2.0 121 129
+ 0.105455 1 2 cbr 1000 ------- 2 1.0 2.0 145 155
- 0.105728 1 2 cbr 1000 ------- 2 1.0 2.0 136 144
r 0.106128 1 2 cbr 1000 ------- 2 1.0 2.0 122 130
+ 0.106182 1 2 cbr 1000 ------- 2 1.0 2.0 146 156
- 0.106528 1 2 cbr 1000 ------- 2 1.0 2.0 137 145
+ 0.106909 1 2 cbr 1000 ------- 2 1.0 2.0 147 157
r 0.106928 1 2 cbr 1000 ------- 2 1.0 2.0 123 131
- 0.107328 1 2 cbr 1000 ------- 2 1.0 2.0 138 146
+ 0.107636 1 2 cbr 1000 ------- 2 1.0 2.0 148 158
r 0.107728 1 2 cbr 1000 ------- 2 1.0 2.0 124 132
- 0.108128 1 2 cbr 1000 ------- 2 1.0 2.0 139 148
+ 0.108364 1 2 cbr 1000 ------- 2 1.0 2.0 149 159
r 0.108528 1 2 cbr 1000 ------- 2 1.0 2.0 125 133
- 0.108928 1 2 cbr 1000 ------- 2 1.0 2.0 140 150
+ 0.109091 1 2 cbr 1000 ------- 2 1.0 2.0 150 160
r 0.109328 1 2 cbr 1000 ------- 2 1.0 2.0 126 134
- 0.109728 1 2 cbr 1000 ------- 2 1.0 2.0 141 151
+ 0.109818 1 2 cbr 1000 ------- 2 1.0 2.0 151 161
r 0.110128 1 2 cbr 1000 ------- 2 1.0 2.0 127 135
- 0.110528 1 2 cbr 1000 ------- 2 1.0 2.0 143 153
+ 0.110545 1 2 cbr 1000 ------- 2 1.0 2.0 152 162
r 0.110928 1 2 cbr 1000 ------- 2 1.0 2.0 128 136
r 0.11096 3 2 ack 40 ------- 2 3.0 0.0 1 147
+ 0.11096 2 1 ack 40 ------- 2 3.0 0.0 1 147
- 0.11096 2 1 ack 40 ------- 2 3.0 0.0 1 147
+ 0.111273 1 2 cbr 1000 ------- 2 1.0 2.0 153 163
d 0.111273 1 2 cbr 1000 ------- 2 1.0 2.0 153 163
- 0.111328 1 2 cbr 1000 ------- 2 1.0 2.0 144 154
r 0.111728 1 2 cbr 1000 ------- 2 1.0 2.0 129 137
r 0.111792 3 2 ack 40 ------- 2 3.0 0.0 2 149
+ 0.111792 2 1 ack 40 ------- 2 3.0 0.0 2 149
- 0.111792 2 1 ack 40 ------- 2 3.0 0.0 2 149
+ 0.112 1 2 cbr 1000 ------- 2 1.0 2.0 154 164
- 0.112128 1 2 cbr 1000 ------- 2 1.0 2.0 145 155
r 0.112528 1 2 cbr 1000 ------- 2 1.0 2.0 130 138
+ 0.112727 1 2 cbr 1000 ------- 2 1.0 2.0 155 165
- 0.112928 1 2 cbr 1000 ------- 2 1.0 2.0 146 156
r 0.113328 1 2 cbr 1000 ------- 2 1.0 2.0 132 140
+ 0.113455 1 2 cbr 1000 ------- 2 1.0 2.0 156 166
- 0.113728 1 2 cbr 1000 ------- 2 1.0 2.0 147 157
r 0.114128 1 2 cbr 1000 ------- 2 1.0 2.0 133 141
+ 0.114182 1 2 cbr 1000 ------- 2 1.0 2.0 157 167
- 0.114528 1 2 cbr 1000 ------- 2 1.0 2.0 148 158
+ 0.114909 1 2 cbr 1000 ------- 2 1.0 2.0 158 168
r 0.114928 1 2 cbr 1000 ------- 2 1.0 2.0 134 142
- 0.115328 1 2 cbr 1000 ------- 2 1.0 2.0 149 159
+ 0.115636 1 2 cbr 1000 ------- 2 1.0 2.0 159 169
r 0.115728 1 2 cbr 1000 ------- 2 1.0 2.0 135 143
- 0.116128 1 2 cbr 1000 ------- 2 1.0 2.0 150 160
+ 0.116364 1 2 cbr 1000 ------- 2 1.0 2.0 160 170
r 0.116528 1 2 cbr 1000 ------- 2 1.0 2.0 136 144
- 0.116928 1 2 cbr 1000 ------- 2 1.0 2.0 151 161
+ 0.117091 1 2 cbr 1000 ------- 2 1.0 2.0 161 171
r 0.117328 1 2 cbr 1000 ------- 2 1.0 2.0 137 145
- 0.117728 1 2 cbr 1000 ------- 2 1.0 2.0 152 162
+ 0.117818 1 2 cbr 1000 ------- 2 1.0 2.0 162 172
r 0.118128 1 2 cbr 1000 ------- 2 1.0 2.0 138 146
- 0.118528 1 2 cbr 1000 ------- 2 1.0 2.0 154 164
+ 0.118545 1 2 cbr 1000 ------- 2 1.0 2.0 163 173
r 0.118928 1 2 cbr 1000 ------- 2 1.0 2.0 139 148
+ 0.119273 1 2 cbr 1000 ------- 2 1.0 2.0 164 174
d 0.119273 1 2 cbr 1000 ------- 2 1.0 2.0 164 174
- 0.119328 1 2 cbr 1000 ------- 2 1.0 2.0 155 165
r 0.119728 1 2 cbr 1000 ------- 2 1.0 2.0 140 150
+ 0.12 1 2 cbr 1000 ------- 2 1.0 2.0 165 175
- 0.120128 1 2 cbr 1000 ------- 2 1.0 2.0 156 166
r 0.120528 1 2 cbr 1000 ------- 2 1.0 2.0 141 151
+ 0.120727 1 2 cbr 1000 ------- 2 1.0 2.0 166 176
- 0.120928 1 2 cbr 1000 ------- 2 1.0 2.0 157 167
r 0.120992 2 1 ack 40 ------- 2 3.0 0.0 1 147
+ 0.120992 1 0 ack 40 ------- 2 3.0 0.0 1 147
- 0.120992 1 0 ack 40 ------- 2 3.0 0.0 1 147
r 0.121328 1 2 cbr 1000 ------- 2 1.0 2.0 143 153
+ 0.121455 1 2 cbr 1000 ------- 2 1.0 2.0 167 177
- 0.121728 1 2 cbr 1000 ------- 2 1.0 2.0 158 168
r 0.121824 2 1 ack 40 ------- 2 3.0 0.0 2 149
+ 0.121824 1 0 ack 40 ------- 2 3.0 0.0 2 149
- 0.121824 1 0 ack 40 ------- 2 3.0 0.0 2 149
r 0.122128 1 2 cbr 1000 ------- 2 1.0 2.0 144 154
+ 0.122182 1 2 cbr 1000 ------- 2 1.0 2.0 168 178
- 0.122528 1 2 cbr 1000 ------- 2 1.0 2.0 159 169
+ 0.122909 1 2 cbr 1000 ------- 2 1.0 2.0 169 179
r 0.122928 1 2 cbr 1000 ------- 2 1.0 2.0 145 155
- 0.123328 1 2 cbr 1000 ------- 2 1.0 2.0 160 170
+ 0.123636 1 2 cbr 1000 ------- 2 1.0 2.0 170 180
r 0.123728 1 2 cbr 1000 ------- 2 1.0 2.0 146 156
- 0.124128 1 2 cbr 1000 ------- 2 1.0 2.0 161 171
+ 0.124364 1 2 cbr 1000 ------- 2 1.0 2.0 171 181
r 0.124528 1 2 cbr 1000 ------- 2 1.0 2.0 147 157
- 0.124928 1 2 cbr 1000 ------- 2 1.0 2.0 162 172
+ 0.125091 1 2 cbr 1000 ------- 2 1.0 2.0 172 182
r 0.125328 1 2 cbr 1000 ------- 2 1.0 2.0 148 158
- 0.125728 1 2 cbr 1000 ------- 2 1.0 2.0 163 173
+ 0.125818 1 2 cbr 1000 ------- 2 1.0 2.0 173 183
r 0.126128 1 2 cbr 1000 ------- 2 1.0 2.0 149 159
- 0.126528 1 2 cbr 1000 ------- 2 1.0 2.0 165 175
+ 0.126545 1 2 cbr 1000 ------- 2 1.0 2.0 174 184
r 0.126928 1 2 cbr 1000 ------- 2 1.0 2.0 150 160
+ 0.127273 1 2 cbr 1000 ------- 2 1.0 2.0 175 185
d 0.127273 1 2 cbr 1000 ------- 2 1.0 2.0 175 185
- 0.127328 1 2 cbr 1000 ------- 2 1.0 2.0 166 176
r 0.127728 1 2 cbr 1000 ------- 2 1.0 2.0 151 161
+ 0.128 1 2 cbr 1000 ------- 2 1.0 2.0 176 186
- 0.128128 1 2 cbr 1000 ------- 2 1.0 2.0 167 177
r 0.128528 1 2 cbr 1000 ------- 2 1.0 2.0 152 162
+ 0.128727 1 2 cbr 1000 ------- 2 1.0 2.0 177 187
- 0.128928 1 2 cbr 1000 ------- 2 1.0 2.0 168 178
r 0.129328 1 2 cbr 1000 ------- 2 1.0 2.0 154 164
+ 0.129455 1 2 cbr 1000 ------- 2 1.0 2.0 178 188
- 0.129728 1 2 cbr 1000 ------- 2 1.0 2.0 169 179
r 0.130128 1 2 cbr 1000 ------- 2 1.0 2.0 155 165
+ 0.130182 1 2 cbr 1000 ------- 2 1.0 2.0 179 189
- 0.130528 1 2 cbr 1000 ------- 2 1.0 2.0 170 180
+ 0.130909 1 2 cbr 1000 ------- 2 1.0 2.0 180 190
r 0.130928 1 2 cbr 1000 ------- 2 1.0 2.0 156 166
r 0.131024 1 0 ack 40 ------- 2 3.0 0.0 1 147
+ 0.131024 0 1 tcp 1040 ------- 2 0.0 3.0 3 191
- 0.131024 0 1 tcp 1040 ------- 2 0.0 3.0 3 191
+ 0.131024 0 1 tcp 1040 ------- 2 0.0 3.0 4 192
- 0.131328 1 2 cbr 1000 ------- 2 1.0 2.0 171 181
+ 0.131636 1 2 cbr 1000 ------- 2 1.0 2.0 181 193
r 0.131728 1 2 cbr 1000 ------- 2 1.0 2.0 157 167
r 0.131856 1 0 ack 40 ------- 2 3.0 0.0 2 149
+ 0.131856 0 1 tcp 1040 ------- 2 0.0 3.0 5 194
+ 0.131856 0 1 tcp 1040 ------- 2 0.0 3.0 6 195
- 0.131856 0 1 tcp 1040 ------- 2 0.0 3.0 4 192
- 0.132128 1 2 cbr 1000 ------- 2 1.0 2.0 172 182
+ 0.132364 1 2 cbr 1000 ------- 2 1.0 2.0 182 196
r 0.132528 1 2 cbr 1000 ------- 2 1.0 2.0 158 168
- 0.132688 0 1 tcp 1040 ------- 2 0.0 3.0 5 194
- 0.132928 1 2 cbr 1000 ------- 2 1.0 2.0 173 183
+ 0.133091 1 2 cbr 1000 ------- 2 1.0 2.0 183 197
r 0.133328 1 2 cbr 1000 ------- 2 1.0 2.0 159 169
- 0.13352 0 1 tcp 1040 ------- 2 0.0 3.0 6 195
- 0.133728 1 2 cbr 1000 ------- 2 1.0 2.0 174 184
+ 0.133818 1 2 cbr 1000 ------- 2 1.0 2.0 184 198
r 0.134128 1 2 cbr 1000 ------- 2 1.0 2.0 160 170
- 0.134528 1 2 cbr 1000 ------- 2 1.0 2.0 176 186
+ 0.134545 1 2 cbr 1000 ------- 2 1.0 2.0 185 199
r 0.134928 1 2 cbr 1000 ------- 2 1.0 2.0 161 171
+ 0.135273 1 2 cbr 1000 ------- 2 1.0 2.0 186 200
d 0.135273 1 2 cbr 1000 ------- 2 1.0 2.0 186 200
- 0.135328 1 2 cbr 1000 ------- 2 1.0 2.0 177 187
r 0.135728 1 2 cbr 1000 ------- 2 1.0 2.0 162 172
+ 0.136 1 2 cbr 1000 ------- 2 1.0 2.0 187 201
- 0.136128 1 2 cbr 1000 ------- 2 1.0 2.0 178 188
r 0.136528 1 2 cbr 1000 ------- 2 1.0 2.0 163 173
+ 0.136727 1 2 cbr 1000 ------- 2 1.0 2.0 188 202
- 0.136928 1 2 cbr 1000 ------- 2 1.0 2.0 179 189
r 0.137328 1 2 cbr 1000 ------- 2 1.0 2.0 165 175
+ 0.137455 1 2 cbr 1000 ------- 2 1.0 2.0 189 203
- 0.137728 1 2 cbr 1000 ------- 2 1.0 2.0 180 190
r 0.138128 1 2 cbr 1000 ------- 2 1.0 2.0 166 176
+ 0.138182 1 2 cbr 1000 ------- 2 1.0 2.0 190 204
- 0.138528 1 2 cbr 1000 ------- 2 1.0 2.0 181 193
+ 0.138909 1 2 cbr 1000 ------- 2 1.0 2.0 191 205