+ 0 1 2 cbr 1000 ------- 2 1.0 2.0 0 0
- 0 1 2 cbr 1000 ------- 2 1.0 2.0 0 0
+ 0 0 1 tcp 1000 ------- 2 0.0 3.0 0 1
- 0 0 1 tcp 1000 ------- 2 0.0 3.0 0 1
+ 0 4 1 tcp 1000 ------- 3 4.0 5.0 0 2
- 0 4 1 tcp 1000 ------- 3 4.0 5.0 0 2
+ 0.000727 1 2 cbr 1000 ------- 2 1.0 2.0 1 3
- 0.0008 1 2 cbr 1000 ------- 2 1.0 2.0 1 3
+ 0.001455 1 2 cbr 1000 ------- 2 1.0 2.0 2 4
- 0.0016 1 2 cbr 1000 ------- 2 1.0 2.0 2 4
+ 0.002182 1 2 cbr 1000 ------- 2 1.0 2.0 3 5
- 0.0024 1 2 cbr 1000 ------- 2 1.0 2.0 3 5
+ 0.002909 1 2 cbr 1000 ------- 2 1.0 2.0 4 6
- 0.0032 1 2 cbr 1000 ------- 2 1.0 2.0 4 6
+ 0.003636 1 2 cbr 1000 ------- 2 1.0 2.0 5 7
- 0.004 1 2 cbr 1000 ------- 2 1.0 2.0 5 7
+ 0.004364 1 2 cbr 1000 ------- 2 1.0 2.0 6 8
- 0.0048 1 2 cbr 1000 ------- 2 1.0 2.0 6 8
+ 0.005091 1 2 cbr 1000 ------- 2 1.0 2.0 7 9
- 0.0056 1 2 cbr 1000 ------- 2 1.0 2.0 7 9
+ 0.005818 1 2 cbr 1000 ------- 2 1.0 2.0 8 10
- 0.0064 1 2 cbr 1000 ------- 2 1.0 2.0 8 10
+ 0.006545 1 2 cbr 1000 ------- 2 1.0 2.0 9 11
- 0.0072 1 2 cbr 1000 ------- 2 1.0 2.0 9 11
+ 0.007273 1 2 cbr 1000 ------- 2 1.0 2.0 10 12
+ 0.008 1 2 cbr 1000 ------- 2 1.0 2.0 11 13
- 0.008 1 2 cbr 1000 ------- 2 1.0 2.0 10 12
+ 0.008727 1 2 cbr 1000 ------- 2 1.0 2.0 12 14
- 0.0088 1 2 cbr 1000 ------- 2 1.0 2.0 11 13
+ 0.009455 1 2 cbr 1000 ------- 2 1.0 2.0 13 15
- 0.0096 1 2 cbr 1000 ------- 2 1.0 2.0 12 14
+ 0.010182 1 2 cbr 1000 ------- 2 1.0 2.0 14 16
- 0.0104 1 2 cbr 1000 ------- 2 1.0 2.0 13 15
r 0.0108 1 2 cbr 1000 ------- 2 1.0 2.0 0 0
r 0.0108 0 1 tcp 1000 ------- 2 0.0 3.0 0 1
+ 0.0108 1 2 tcp 1000 ------- 2 0.0 3.0 0 1
r 0.0108 4 1 tcp 1000 ------- 3 4.0 5.0 0 2
+ 0.0108 1 2 tcp 1000 ------- 3 4.0 5.0 0 2
+ 0.010909 1 2 cbr 1000 ------- 2 1.0 2.0 15 17
- 0.0112 1 2 cbr 1000 ------- 2 1.0 2.0 14 16
r 0.0116 1 2 cbr 1000 ------- 2 1.0 2.0 1 3
+ 0.011636 1 2 cbr 1000 ------- 2 1.0 2.0 16 18
- 0.012 1 2 tcp 1000 ------- 2 0.0 3.0 0 1
+ 0.012364 1 2 cbr 1000 ------- 2 1.0 2.0 17 19
r 0.0124 1 2 cbr 1000 ------- 2 1.0 2.0 2 4
- 0.0128 1 2 tcp 1000 ------- 3 4.0 5.0 0 2
+ 0.013091 1 2 cbr 1000 ------- 2 1.0 2.0 18 20
r 0.0132 1 2 cbr 1000 ------- 2 1.0 2.0 3 5
- 0.0136 1 2 cbr 1000 ------- 2 1.0 2.0 15 17
+ 0.013818 1 2 cbr 1000 ------- 2 1.0 2.0 19 21
r 0.014 1 2 cbr 1000 ------- 2 1.0 2.0 4 6
- 0.0144 1 2 cbr 1000 ------- 2 1.0 2.0 16 18
+ 0.014545 1 2 cbr 1000 ------- 2 1.0 2.0 20 22
r 0.0148 1 2 cbr 1000 ------- 2 1.0 2.0 5 7
- 0.0152 1 2 cbr 1000 ------- 2 1.0 2.0 17 19
+ 0.015273 1 2 cbr 1000 ------- 2 1.0 2.0 21 23
r 0.0156 1 2 cbr 1000 ------- 2 1.0 2.0 6 8
+ 0.016 1 2 cbr 1000 ------- 2 1.0 2.0 22 24
- 0.016 1 2 cbr 1000 ------- 2 1.0 2.0 18 20
r 0.0164 1 2 cbr 1000 ------- 2 1.0 2.0 7 9
+ 0.016727 1 2 cbr 1000 ------- 2 1.0 2.0 23 25
- 0.0168 1 2 cbr 1000 ------- 2 1.0 2.0 19 21
r 0.0172 1 2 cbr 1000 ------- 2 1.0 2.0 8 10
+ 0.017455 1 2 cbr 1000 ------- 2 1.0 2.0 24 26
- 0.0176 1 2 cbr 1000 ------- 2 1.0 2.0 20 22
r 0.018 1 2 cbr 1000 ------- 2 1.0 2.0 9 11
+ 0.018182 1 2 cbr 1000 ------- 2 1.0 2.0 25 27
- 0.0184 1 2 cbr 1000 ------- 2 1.0 2.0 21 23
r 0.0188 1 2 cbr 1000 ------- 2 1.0 2.0 10 12
+ 0.018909 1 2 cbr 1000 ------- 2 1.0 2.0 26 28
- 0.0192 1 2 cbr 1000 ------- 2 1.0 2.0 22 24
r 0.0196 1 2 cbr 1000 ------- 2 1.0 2.0 11 13
+ 0.019636 1 2 cbr 1000 ------- 2 1.0 2.0 27 29
- 0.02 1 2 cbr 1000 ------- 2 1.0 2.0 23 25
+ 0.020364 1 2 cbr 1000 ------- 2 1.0 2.0 28 30
r 0.0204 1 2 cbr 1000 ------- 2 1.0 2.0 12 14
- 0.0208 1 2 cbr 1000 ------- 2 1.0 2.0 24 26
+ 0.021091 1 2 cbr 1000 ------- 2 1.0 2.0 29 31
r 0.0212 1 2 cbr 1000 ------- 2 1.0 2.0 13 15
- 0.0216 1 2 cbr 1000 ------- 2 1.0 2.0 25 27
+ 0.021818 1 2 cbr 1000 ------- 2 1.0 2.0 30 32
r 0.022 1 2 cbr 1000 ------- 2 1.0 2.0 14 16
- 0.0224 1 2 cbr 1000 ------- 2 1.0 2.0 26 28
+ 0.022545 1 2 cbr 1000 ------- 2 1.0 2.0 31 33
r 0.0228 1 2 tcp 1000 ------- 2 0.0 3.0 0 1
+ 0.0228 2 3 tcp 1000 ------- 2 0.0 3.0 0 1
- 0.0228 2 3 tcp 1000 ------- 2 0.0 3.0 0 1
- 0.0232 1 2 cbr 1000 ------- 2 1.0 2.0 27 29
+ 0.023273 1 2 cbr 1000 ------- 2 1.0 2.0 32 34
r 0.0236 1 2 tcp 1000 ------- 3 4.0 5.0 0 2
+ 0.0236 2 5 tcp 1000 ------- 3 4.0 5.0 0 2
- 0.0236 2 5 tcp 1000 ------- 3 4.0 5.0 0 2
+ 0.024 1 2 cbr 1000 ------- 2 1.0 2.0 33 35
- 0.024 1 2 cbr 1000 ------- 2 1.0 2.0 28 30
r 0.0244 1 2 cbr 1000 ------- 2 1.0 2.0 15 17
+ 0.024727 1 2 cbr 1000 ------- 2 1.0 2.0 34 36
- 0.0248 1 2 cbr 1000 ------- 2 1.0 2.0 29 31
r 0.0252 1 2 cbr 1000 ------- 2 1.0 2.0 16 18
+ 0.025455 1 2 cbr 1000 ------- 2 1.0 2.0 35 37
- 0.0256 1 2 cbr 1000 ------- 2 1.0 2.0 30 32
r 0.026 1 2 cbr 1000 ------- 2 1.0 2.0 17 19
+ 0.026182 1 2 cbr 1000 ------- 2 1.0 2.0 36 38
- 0.0264 1 2 cbr 1000 ------- 2 1.0 2.0 31 33
r 0.0268 1 2 cbr 1000 ------- 2 1.0 2.0 18 20
+ 0.026909 1 2 cbr 1000 ------- 2 1.0 2.0 37 39
- 0.0272 1 2 cbr 1000 ------- 2 1.0 2.0 32 34
r 0.0276 1 2 cbr 1000 ------- 2 1.0 2.0 19 21
+ 0.027636 1 2 cbr 1000 ------- 2 1.0 2.0 38 40
- 0.028 1 2 cbr 1000 ------- 2 1.0 2.0 33 35
+ 0.028364 1 2 cbr 1000 ------- 2 1.0 2.0 39 41
r 0.0284 1 2 cbr 1000 ------- 2 1.0 2.0 20 22
- 0.0288 1 2 cbr 1000 ------- 2 1.0 2.0 34 36
+ 0.029091 1 2 cbr 1000 ------- 2 1.0 2.0 40 42
r 0.0292 1 2 cbr 1000 ------- 2 1.0 2.0 21 23
- 0.0296 1 2 cbr 1000 ------- 2 1.0 2.0 35 37
+ 0.029818 1 2 cbr 1000 ------- 2 1.0 2.0 41 43
r 0.03 1 2 cbr 1000 ------- 2 1.0 2.0 22 24
- 0.0304 1 2 cbr 1000 ------- 2 1.0 2.0 36 38
+ 0.030545 1 2 cbr 1000 ------- 2 1.0 2.0 42 44
r 0.0308 1 2 cbr 1000 ------- 2 1.0 2.0 23 25
- 0.0312 1 2 cbr 1000 ------- 2 1.0 2.0 37 39
+ 0.031273 1 2 cbr 1000 ------- 2 1.0 2.0 43 45
r 0.0316 1 2 cbr 1000 ------- 2 1.0 2.0 24 26
+ 0.032 1 2 cbr 1000 ------- 2 1.0 2.0 44 46
- 0.032 1 2 cbr 1000 ------- 2 1.0 2.0 38 40
r 0.0324 1 2 cbr 1000 ------- 2 1.0 2.0 25 27
+ 0.032727 1 2 cbr 1000 ------- 2 1.0 2.0 45 47
- 0.0328 1 2 cbr 1000 ------- 2 1.0 2.0 39 41
r 0.0332 1 2 cbr 1000 ------- 2 1.0 2.0 26 28
+ 0.033455 1 2 cbr 1000 ------- 2 1.0 2.0 46 48
- 0.0336 1 2 cbr 1000 ------- 2 1.0 2.0 40 42
r 0.0336 2 3 tcp 1000 ------- 2 0.0 3.0 0 1
+ 0.0336 3 2 ack 40 ------- 2 3.0 0.0 0 49
- 0.0336 3 2 ack 40 ------- 2 3.0 0.0 0 49
r 0.034 1 2 cbr 1000 ------- 2 1.0 2.0 27 29
+ 0.034182 1 2 cbr 1000 ------- 2 1.0 2.0 47 50
- 0.0344 1 2 cbr 1000 ------- 2 1.0 2.0 41 43
r 0.0344 2 5 tcp 1000 ------- 3 4.0 5.0 0 2
+ 0.0344 5 2 ack 40 ------- 3 5.0 4.0 0 51
- 0.0344 5 2 ack 40 ------- 3 5.0 4.0 0 51
r 0.0348 1 2 cbr 1000 ------- 2 1.0 2.0 28 30
+ 0.034909 1 2 cbr 1000 ------- 2 1.0 2.0 48 52
- 0.0352 1 2 cbr 1000 ------- 2 1.0 2.0 42 44
r 0.0356 1 2 cbr 1000 ------- 2 1.0 2.0 29 31
+ 0.035636 1 2 cbr 1000 ------- 2 1.0 2.0 49 53
- 0.036 1 2 cbr 1000 ------- 2 1.0 2.0 43 45
+ 0.036364 1 2 cbr 1000 ------- 2 1.0 2.0 50 54
r 0.0364 1 2 cbr 1000 ------- 2 1.0 2.0 30 32
- 0.0368 1 2 cbr 1000 ------- 2 1.0 2.0 44 46
+ 0.037091 1 2 cbr 1000 ------- 2 1.0 2.0 51 55
r 0.0372 1 2 cbr 1000 ------- 2 1.0 2.0 31 33
- 0.0376 1 2 cbr 1000 ------- 2 1.0 2.0 45 47
+ 0.037818 1 2 cbr 1000 ------- 2 1.0 2.0 52 56
r 0.038 1 2 cbr 1000 ------- 2 1.0 2.0 32 34
- 0.0384 1 2 cbr 1000 ------- 2 1.0 2.0 46 48
+ 0.038545 1 2 cbr 1000 ------- 2 1.0 2.0 53 57
r 0.0388 1 2 cbr 1000 ------- 2 1.0 2.0 33 35
- 0.0392 1 2 cbr 1000 ------- 2 1.0 2.0 47 50
+ 0.039273 1 2 cbr 1000 ------- 2 1.0 2.0 54 58
r 0.0396 1 2 cbr 1000 ------- 2 1.0 2.0 34 36
+ 0.04 1 2 cbr 1000 ------- 2 1.0 2.0 55 59
- 0.04 1 2 cbr 1000 ------- 2 1.0 2.0 48 52
r 0.0404 1 2 cbr 1000 ------- 2 1.0 2.0 35 37
+ 0.040727 1 2 cbr 1000 ------- 2 1.0 2.0 56 60
- 0.0408 1 2 cbr 1000 ------- 2 1.0 2.0 49 53
r 0.0412 1 2 cbr 1000 ------- 2 1.0 2.0 36 38
+ 0.041455 1 2 cbr 1000 ------- 2 1.0 2.0 57 61
- 0.0416 1 2 cbr 1000 ------- 2 1.0 2.0 50 54
r 0.042 1 2 cbr 1000 ------- 2 1.0 2.0 37 39
+ 0.042182 1 2 cbr 1000 ------- 2 1.0 2.0 58 62
- 0.0424 1 2 cbr 1000 ------- 2 1.0 2.0 51 55
r 0.0428 1 2 cbr 1000 ------- 2 1.0 2.0 38 40
+ 0.042909 1 2 cbr 1000 ------- 2 1.0 2.0 59 63
- 0.0432 1 2 cbr 1000 ------- 2 1.0 2.0 52 56
r 0.0436 1 2 cbr 1000 ------- 2 1.0 2.0 39 41
r 0.043632 3 2 ack 40 ------- 2 3.0 0.0 0 49
+ 0.043632 2 1 ack 40 ------- 2 3.0 0.0 0 49
- 0.043632 2 1 ack 40 ------- 2 3.0 0.0 0 49
+ 0.043636 1 2 cbr 1000 ------- 2 1.0 2.0 60 64
- 0.044 1 2 cbr 1000 ------- 2 1.0 2.0 53 57
+ 0.044364 1 2 cbr 1000 ------- 2 1.0 2.0 61 65
r 0.0444 1 2 cbr 1000 ------- 2 1.0 2.0 40 42
r 0.044432 5 2 ack 40 ------- 3 5.0 4.0 0 51
+ 0.044432 2 1 ack 40 ------- 3 5.0 4.0 0 51
- 0.044432 2 1 ack 40 ------- 3 5.0 4.0 0 51
- 0.0448 1 2 cbr 1000 ------- 2 1.0 2.0 54 58
+ 0.045091 1 2 cbr 1000 ------- 2 1.0 2.0 62 66
r 0.0452 1 2 cbr 1000 ------- 2 1.0 2.0 41 43
- 0.0456 1 2 cbr 1000 ------- 2 1.0 2.0 55 59
+ 0.045818 1 2 cbr 1000 ------- 2 1.0 2.0 63 67
r 0.046 1 2 cbr 1000 ------- 2 1.0 2.0 42 44
- 0.0464 1 2 cbr 1000 ------- 2 1.0 2.0 56 60
+ 0.046545 1 2 cbr 1000 ------- 2 1.0 2.0 64 68
r 0.0468 1 2 cbr 1000 ------- 2 1.0 2.0 43 45
- 0.0472 1 2 cbr 1000 ------- 2 1.0 2.0 57 61
+ 0.047273 1 2 cbr 1000 ------- 2 1.0 2.0 65 69
r 0.0476 1 2 cbr 1000 ------- 2 1.0 2.0 44 46
+ 0.048 1 2 cbr 1000 ------- 2 1.0 2.0 66 70
- 0.048 1 2 cbr 1000 ------- 2 1.0 2.0 58 62
r 0.0484 1 2 cbr 1000 ------- 2 1.0 2.0 45 47
+ 0.048727 1 2 cbr 1000 ------- 2 1.0 2.0 67 71
- 0.0488 1 2 cbr 1000 ------- 2 1.0 2.0 59 63
r 0.0492 1 2 cbr 1000 ------- 2 1.0 2.0 46 48
+ 0.049455 1 2 cbr 1000 ------- 2 1.0 2.0 68 72
- 0.0496 1 2 cbr 1000 ------- 2 1.0 2.0 60 64
r 0.05 1 2 cbr 1000 ------- 2 1.0 2.0 47 50
+ 0.050182 1 2 cbr 1000 ------- 2 1.0 2.0 69 73
- 0.0504 1 2 cbr 1000 ------- 2 1.0 2.0 61 65
r 0.0508 1 2 cbr 1000 ------- 2 1.0 2.0 48 52
+ 0.050909 1 2 cbr 1000 ------- 2 1.0 2.0 70 74
- 0.0512 1 2 cbr 1000 ------- 2 1.0 2.0 62 66
r 0.0516 1 2 cbr 1000 ------- 2 1.0 2.0 49 53
+ 0.051636 1 2 cbr 1000 ------- 2 1.0 2.0 71 75
- 0.052 1 2 cbr 1000 ------- 2 1.0 2.0 63 67
+ 0.052364 1 2 cbr 1000 ------- 2 1.0 2.0 72 76
r 0.0524 1 2 cbr 1000 ------- 2 1.0 2.0 50 54
- 0.0528 1 2 cbr 1000 ------- 2 1.0 2.0 64 68
+ 0.053091 1 2 cbr 1000 ------- 2 1.0 2.0 73 77
r 0.0532 1 2 cbr 1000 ------- 2 1.0 2.0 51 55
- 0.0536 1 2 cbr 1000 ------- 2 1.0 2.0 65 69
r 0.053664 2 1 ack 40 ------- 2 3.0 0.0 0 49
+ 0.053664 1 0 ack 40 ------- 2 3.0 0.0 0 49
- 0.053664 1 0 ack 40 ------- 2 3.0 0.0 0 49
+ 0.053818 1 2 cbr 1000 ------- 2 1.0 2.0 74 78
r 0.054 1 2 cbr 1000 ------- 2 1.0 2.0 52 56
- 0.0544 1 2 cbr 1000 ------- 2 1.0 2.0 66 70
r 0.054464 2 1 ack 40 ------- 3 5.0 4.0 0 51
+ 0.054464 1 4 ack 40 ------- 3 5.0 4.0 0 51
- 0.054464 1 4 ack 40 ------- 3 5.0 4.0 0 51
+ 0.054545 1 2 cbr 1000 ------- 2 1.0 2.0 75 79
r 0.0548 1 2 cbr 1000 ------- 2 1.0 2.0 53 57
- 0.0552 1 2 cbr 1000 ------- 2 1.0 2.0 67 71
+ 0.055273 1 2 cbr 1000 ------- 2 1.0 2.0 76 80
r 0.0556 1 2 cbr 1000 ------- 2 1.0 2.0 54 58
+ 0.056 1 2 cbr 1000 ------- 2 1.0 2.0 77 81
d 0.056 1 2 cbr 1000 ------- 2 1.0 2.0 77 81
- 0.056 1 2 cbr 1000 ------- 2 1.0 2.0 68 72
r 0.0564 1 2 cbr 1000 ------- 2 1.0 2.0 55 59
+ 0.056727 1 2 cbr 1000 ------- 2 1.0 2.0 78 82
- 0.0568 1 2 cbr 1000 ------- 2 1.0 2.0 69 73
r 0.0572 1 2 cbr 1000 ------- 2 1.0 2.0 56 60
+ 0.057455 1 2 cbr 1000 ------- 2 1.0 2.0 79 83
- 0.0576 1 2 cbr 1000 ------- 2 1.0 2.0 70 74
r 0.058 1 2 cbr 1000 ------- 2 1.0 2.0 57 61
+ 0.058182 1 2 cbr 1000 ------- 2 1.0 2.0 80 84
- 0.0584 1 2 cbr 1000 ------- 2 1.0 2.0 71 75
r 0.0588 1 2 cbr 1000 ------- 2 1.0 2.0 58 62
+ 0.058909 1 2 cbr 1000 ------- 2 1.0 2.0 81 85
- 0.0592 1 2 cbr 1000 ------- 2 1.0 2.0 72 76
r 0.0596 1 2 cbr 1000 ------- 2 1.0 2.0 59 63
+ 0.059636 1 2 cbr 1000 ------- 2 1.0 2.0 82 86
- 0.06 1 2 cbr 1000 ------- 2 1.0 2.0 73 77
+ 0.060364 1 2 cbr 1000 ------- 2 1.0 2.0 83 87
r 0.0604 1 2 cbr 1000 ------- 2 1.0 2.0 60 64
- 0.0608 1 2 cbr 1000 ------- 2 1.0 2.0 74 78
+ 0.061091 1 2 cbr 1000 ------- 2 1.0 2.0 84 88
r 0.0612 1 2 cbr 1000 ------- 2 1.0 2.0 61 65
- 0.0616 1 2 cbr 1000 ------- 2 1.0 2.0 75 79
+ 0.061818 1 2 cbr 1000 ------- 2 1.0 2.0 85 89
r 0.062 1 2 cbr 1000 ------- 2 1.0 2.0 62 66
- 0.0624 1 2 cbr 1000 ------- 2 1.0 2.0 76 80
+ 0.062545 1 2 cbr 1000 ------- 2 1.0 2.0 86 90
r 0.0628 1 2 cbr 1000 ------- 2 1.0 2.0 63 67
- 0.0632 1 2 cbr 1000 ------- 2 1.0 2.0 78 82
+ 0.063273 1 2 cbr 1000 ------- 2 1.0 2.0 87 91
r 0.0636 1 2 cbr 1000 ------- 2 1.0 2.0 64 68
r 0.063696 1 0 ack 40 ------- 2 3.0 0.0 0 49
+ 0.063696 0 1 tcp 1000 ------- 2 0.0 3.0 1 92
- 0.063696 0 1 tcp 1000 ------- 2 0.0 3.0 1 92
- 0.064 1 2 cbr 1000 ------- 2 1.0 2.0 79 83
+ 0.064 1 2 cbr 1000 ------- 2 1.0 2.0 88 93
r 0.0644 1 2 cbr 1000 ------- 2 1.0 2.0 65 69
r 0.064496 1 4 ack 40 ------- 3 5.0 4.0 0 51
+ 0.064496 4 1 tcp 1000 ------- 3 4.0 5.0 1 94
- 0.064496 4 1 tcp 1000 ------- 3 4.0 5.0 1 94
+ 0.064727 1 2 cbr 1000 ------- 2 1.0 2.0 89 95
d 0.064727 1 2 cbr 1000 ------- 2 1.0 2.0 89 95
- 0.0648 1 2 cbr 1000 ------- 2 1.0 2.0 80 84
r 0.0652 1 2 cbr 1000 ------- 2 1.0 2.0 66 70
+ 0.065455 1 2 cbr 1000 ------- 2 1.0 2.0 90 96
- 0.0656 1 2 cbr 1000 ------- 2 1.0 2.0 81 85
r 0.066 1 2 cbr 1000 ------- 2 1.0 2.0 67 71
+ 0.066182 1 2 cbr 1000 ------- 2 1.0 2.0 91 97
- 0.0664 1 2 cbr 1000 ------- 2 1.0 2.0 82 86
r 0.0668 1 2 cbr 1000 ------- 2 1.0 2.0 68 72
+ 0.066909 1 2 cbr 1000 ------- 2 1.0 2.0 92 98
- 0.0672 1 2 cbr 1000 ------- 2 1.0 2.0 83 87
r 0.0676 1 2 cbr 1000 ------- 2 1.0 2.0 69 73
+ 0.067636 1 2 cbr 1000 ------- 2 1.0 2.0 93 99
- 0.068 1 2 cbr 1000 ------- 2 1.0 2.0 84 88
+ 0.068364 1 2 cbr 1000 ------- 2 1.0 2.0 94 100
r 0.0684 1 2 cbr 1000 ------- 2 1.0 2.0 70 74
- 0.0688 1 2 cbr 1000 ------- 2 1.0 2.0 85 89
+ 0.069091 1 2 cbr 1000 ------- 2 1.0 2.0 95 101
r 0.0692 1 2 cbr 1000 ------- 2 1.0 2.0 71 75
- 0.0696 1 2 cbr 1000 ------- 2 1.0 2.0 86 90
+ 0.069818 1 2 cbr 1000 ------- 2 1.0 2.0 96 102
r 0.07 1 2 cbr 1000 ------- 2 1.0 2.0 72 76
- 0.0704 1 2 cbr 1000 ------- 2 1.0 2.0 87 91
+ 0.070545 1 2 cbr 1000 ------- 2 1.0 2.0 97 103
r 0.0708 1 2 cbr 1000 ------- 2 1.0 2.0 73 77
- 0.0712 1 2 cbr 1000 ------- 2 1.0 2.0 88 93
+ 0.071273 1 2 cbr 1000 ------- 2 1.0 2.0 98 104
r 0.0716 1 2 cbr 1000 ------- 2 1.0 2.0 74 78
- 0.072 1 2 cbr 1000 ------- 2 1.0 2.0 90 96
+ 0.072 1 2 cbr 1000 ------- 2 1.0 2.0 99 105
r 0.0724 1 2 cbr 1000 ------- 2 1.0 2.0 75 79
+ 0.072727 1 2 cbr 1000 ------- 2 1.0 2.0 100 106
d 0.072727 1 2 cbr 1000 ------- 2 1.0 2.0 100 106
- 0.0728 1 2 cbr 1000 ------- 2 1.0 2.0 91 97
r 0.0732 1 2 cbr 1000 ------- 2 1.0 2.0 76 80
+ 0.073455 1 2 cbr 1000 ------- 2 1.0 2.0 101 107
- 0.0736 1 2 cbr 1000 ------- 2 1.0 2.0 92 98
r 0.074 1 2 cbr 1000 ------- 2 1.0 2.0 78 82
+ 0.074182 1 2 cbr 1000 ------- 2 1.0 2.0 102 108
- 0.0744 1 2 cbr 1000 ------- 2 1.0 2.0 93 99
r 0.074496 0 1 tcp 1000 ------- 2 0.0 3.0 1 92
+ 0.074496 1 2 tcp 1000 ------- 2 0.0 3.0 1 92
r 0.0748 1 2 cbr 1000 ------- 2 1.0 2.0 79 83
+ 0.074909 1 2 cbr 1000 ------- 2 1.0 2.0 103 109
d 0.074909 1 2 cbr 1000 ------- 2 1.0 2.0 103 109
- 0.0752 1 2 cbr 1000 ------- 2 1.0 2.0 94 100
r 0.075296 4 1 tcp 1000 ------- 3 4.0 5.0 1 94
+ 0.075296 1 2 tcp 1000 ------- 3 4.0 5.0 1 94
r 0.0756 1 2 cbr 1000 ------- 2 1.0 2.0 80 84
+ 0.075636 1 2 cbr 1000 ------- 2 1.0 2.0 104 110
d 0.075636 1 2 cbr 1000 ------- 2 1.0 2.0 104 110
- 0.076 1 2 cbr 1000 ------- 2 1.0 2.0 95 101
+ 0.076364 1 2 cbr 1000 ------- 2 1.0 2.0 105 111
r 0.0764 1 2 cbr 1000 ------- 2 1.0 2.0 81 85
- 0.0768 1 2 cbr 1000 ------- 2 1.0 2.0 96 102
+ 0.077091 1 2 cbr 1000 ------- 2 1.0 2.0 106 112
r 0.0772 1 2 cbr 1000 ------- 2 1.0 2.0 82 86
- 0.0776 1 2 cbr 1000 ------- 2 1.0 2.0 97 103
+ 0.077818 1 2 cbr 1000 ------- 2 1.0 2.0 107 113
r 0.078 1 2 cbr 1000 ------- 2 1.0 2.0 83 87
- 0.0784 1 2 cbr 1000 ------- 2 1.0 2.0 98 104
+ 0.078545 1 2 cbr 1000 ------- 2 1.0 2.0 108 114
r 0.0788 1 2 cbr 1000 ------- 2 1.0 2.0 84 88
- 0.0792 1 2 cbr 1000 ------- 2 1.0 2.0 99 105
+ 0.079273 1 2 cbr 1000 ------- 2 1.0 2.0 109 115
r 0.0796 1 2 cbr 1000 ------- 2 1.0 2.0 85 89
- 0.08 1 2 cbr 1000 ------- 2 1.0 2.0 101 107
+ 0.08 1 2 cbr 1000 ------- 2 1.0 2.0 110 116
r 0.0804 1 2 cbr 1000 ------- 2 1.0 2.0 86 90
+ 0.080727 1 2 cbr 1000 ------- 2 1.0 2.0 111 117
d 0.080727 1 2 cbr 1000 ------- 2 1.0 2.0 111 117
- 0.0808 1 2 cbr 1000 ------- 2 1.0 2.0 102 108
r 0.0812 1 2 cbr 1000 ------- 2 1.0 2.0 87 91
+ 0.081455 1 2 cbr 1000 ------- 2 1.0 2.0 112 118
- 0.0816 1 2 tcp 1000 ------- 2 0.0 3.0 1 92
r 0.082 1 2 cbr 1000 ------- 2 1.0 2.0 88 93
+ 0.082182 1 2 cbr 1000 ------- 2 1.0 2.0 113 119
- 0.0824 1 2 tcp 1000 ------- 3 4.0 5.0 1 94
r 0.0828 1 2 cbr 1000 ------- 2 1.0 2.0 90 96
+ 0.082909 1 2 cbr 1000 ------- 2 1.0 2.0 114 120
- 0.0832 1 2 cbr 1000 ------- 2 1.0 2.0 105 111
r 0.0836 1 2 cbr 1000 ------- 2 1.0 2.0 91 97
+ 0.083636 1 2 cbr 1000 ------- 2 1.0 2.0 115 121
- 0.084 1 2 cbr 1000 ------- 2 1.0 2.0 106 112
+ 0.084364 1 2 cbr 1000 ------- 2 1.0 2.0 116 122
r 0.0844 1 2 cbr 1000 ------- 2 1.0 2.0 92 98
- 0.0848 1 2 cbr 1000 ------- 2 1.0 2.0 107 113
+ 0.085091 1 2 cbr 1000 ------- 2 1.0 2.0 117 123
r 0.0852 1 2 cbr 1000 ------- 2 1.0 2.0 93 99
- 0.0856 1 2 cbr 1000 ------- 2 1.0 2.0 108 114
+ 0.085818 1 2 cbr 1000 ------- 2 1.0 2.0 118 124
r 0.086 1 2 cbr 1000 ------- 2 1.0 2.0 94 100
- 0.0864 1 2 cbr 1000 ------- 2 1.0 2.0 109 115
+ 0.086545 1 2 cbr 1000 ------- 2 1.0 2.0 119 125
r 0.0868 1 2 cbr 1000 ------- 2 1.0 2.0 95 101
- 0.0872 1 2 cbr 1000 ------- 2 1.0 2.0 110 116
+ 0.087273 1 2 cbr 1000 ------- 2 1.0 2.0 120 126
r 0.0876 1 2 cbr 1000 ------- 2 1.0 2.0 96 102
- 0.088 1 2 cbr 1000 ------- 2 1.0 2.0 112 118
+ 0.088 1 2 cbr 1000 ------- 2 1.0 2.0 121 127
r 0.0884 1 2 cbr 1000 ------- 2 1.0 2.0 97 103
+ 0.088727 1 2 cbr 1000 ------- 2 1.0 2.0 122 128
d 0.088727 1 2 cbr 1000 ------- 2 1.0 2.0 122 128
- 0.0888 1 2 cbr 1000 ------- 2 1.0 2.0 113 119
r 0.0892 1 2 cbr 1000 ------- 2 1.0 2.0 98 104
+ 0.089455 1 2 cbr 1000 ------- 2 1.0 2.0 123 129
- 0.0896 1 2 cbr 1000 ------- 2 1.0 2.0 114 120
r 0.09 1 2 cbr 1000 ------- 2 1.0 2.0 99 105
+ 0.090182 1 2 cbr 1000 ------- 2 1.0 2.0 124 130
- 0.0904 1 2 cbr 1000 ------- 2 1.0 2.0 115 121
r 0.0908 1 2 cbr 1000 ------- 2 1.0 2.0 101 107
+ 0.090909 1 2 cbr 1000 ------- 2 1.0 2.0 125 131
- 0.0912 1 2 cbr 1000 ------- 2 1.0 2.0 116 122
r 0.0916 1 2 cbr 1000 ------- 2 1.0 2.0 102 108
+ 0.091636 1 2 cbr 1000 ------- 2 1.0 2.0 126 132
- 0.092 1 2 cbr 1000 ------- 2 1.0 2.0 117 123
+ 0.092364 1 2 cbr 1000 ------- 2 1.0 2.0 127 133
r 0.0924 1 2 tcp 1000 ------- 2 0.0 3.0 1 92
+ 0.0924 2 3 tcp 1000 ------- 2 0.0 3.0 1 92
- 0.0924 2 3 tcp 1000 ------- 2 0.0 3.0 1 92
- 0.0928 1 2 cbr 1000 ------- 2 1.0 2.0 118 124
+ 0.093091 1 2 cbr 1000 ------- 2 1.0 2.0 128 134
r 0.0932 1 2 tcp 1000 ------- 3 4.0 5.0 1 94
+ 0.0932 2 5 tcp 1000 ------- 3 4.0 5.0 1 94
- 0.0932 2 5 tcp 1000 ------- 3 4.0 5.0 1 94
- 0.0936 1 2 cbr 1000 ------- 2 1.0 2.0 119 125
+ 0.093818 1 2 cbr 1000 ------- 2 1.0 2.0 129 135
r 0.094 1 2 cbr 1000 ------- 2 1.0 2.0 105 111
- 0.0944 1 2 cbr 1000 ------- 2 1.0 2.0 120 126
+ 0.094545 1 2 cbr 1000 ------- 2 1.0 2.0 130 136
r 0.0948 1 2 cbr 1000 ------- 2 1.0 2.0 106 112
- 0.0952 1 2 cbr 1000 ------- 2 1.0 2.0 121 127
+ 0.095273 1 2 cbr 1000 ------- 2 1.0 2.0 131 137
r 0.0956 1 2 cbr 1000 ------- 2 1.0 2.0 107 113
- 0.096 1 2 cbr 1000 ------- 2 1.0 2.0 123 129
+ 0.096 1 2 cbr 1000 ------- 2 1.0 2.0 132 138
r 0.0964 1 2 cbr 1000 ------- 2 1.0 2.0 108 114
+ 0.096727 1 2 cbr 1000 ------- 2 1.0 2.0 133 139
d 0.096727 1 2 cbr 1000 ------- 2 1.0 2.0 133 139
- 0.0968 1 2 cbr 1000 ------- 2 1.0 2.0 124 130
r 0.0972 1 2 cbr 1000 ------- 2 1.0 2.0 109 115
+ 0.097455 1 2 cbr 1000 ------- 2 1.0 2.0 134 140
- 0.0976 1 2 cbr 1000 ------- 2 1.0 2.0 125 131
r 0.098 1 2 cbr 1000 ------- 2 1.0 2.0 110 116
+ 0.098182 1 2 cbr 1000 ------- 2 1.0 2.0 135 141
- 0.0984 1 2 cbr 1000 ------- 2 1.0 2.0 126 132
r 0.0988 1 2 cbr 1000 ------- 2 1.0 2.0 112 118
+ 0.098909 1 2 cbr 1000 ------- 2 1.0 2.0 136 142
- 0.0992 1 2 cbr 1000 ------- 2 1.0 2.0 127 133
r 0.0996 1 2 cbr 1000 ------- 2 1.0 2.0 113 119
+ 0.099636 1 2 cbr 1000 ------- 2 1.0 2.0 137 143
- 0.1 1 2 cbr 1000 ------- 2 1.0 2.0 128 134
+ 0.100364 1 2 cbr 1000 ------- 2 1.0 2.0 138 144
r 0.1004 1 2 cbr 1000 ------- 2 1.0 2.0 114 120
- 0.1008 1 2 cbr 1000 ------- 2 1.0 2.0 129 135
+ 0.101091 1 2 cbr 1000 ------- 2 1.0 2.0 139 145
r 0.1012 1 2 cbr 1000 ------- 2 1.0 2.0 115 121
- 0.1016 1 2 cbr 1000 ------- 2 1.0 2.0 130 136
+ 0.101818 1 2 cbr 1000 ------- 2 1.0 2.0 140 146
r 0.102 1 2 cbr 1000 ------- 2 1.0 2.0 116 122
- 0.1024 1 2 cbr 1000 ------- 2 1.0 2.0 131 137
+ 0.102545 1 2 cbr 1000 ------- 2 1.0 2.0 141 147
r 0.1028 1 2 cbr 1000 ------- 2 1.0 2.0 117 123
- 0.1032 1 2 cbr 1000 ------- 2 1.0 2.0 132 138
r 0.1032 2 3 tcp 1000 ------- 2 0.0 3.0 1 92
+ 0.1032 3 2 ack 40 ------- 2 3.0 0.0 1 148
- 0.1032 3 2 ack 40 ------- 2 3.0 0.0 1 148
+ 0.103273 1 2 cbr 1000 ------- 2 1.0 2.0 142 149
r 0.1036 1 2 cbr 1000 ------- 2 1.0 2.0 118 124
- 0.104 1 2 cbr 1000 ------- 2 1.0 2.0 134 140
r 0.104 2 5 tcp 1000 ------- 3 4.0 5.0 1 94
+ 0.104 5 2 ack 40 ------- 3 5.0 4.0 1 150
- 0.104 5 2 ack 40 ------- 3 5.0 4.0 1 150
+ 0.104 1 2 cbr 1000 ------- 2 1.0 2.0 143 151
r 0.1044 1 2 cbr 1000 ------- 2 1.0 2.0 119 125
+ 0.104727 1 2 cbr 1000 ------- 2 1.0 2.0 144 152
d 0.104727 1 2 cbr 1000 ------- 2 1.0 2.0 144 152
- 0.1048 1 2 cbr 1000 ------- 2 1.0 2.0 135 141
r 0.1052 1 2 cbr 1000 ------- 2 1.0 2.0 120 126
+ 0.105455 1 2 cbr 1000 ------- 2 1.0 2.0 145 153
- 0.1056 1 2 cbr 1000 ------- 2 1.0 2.0 136 142
r 0.106 1 2 cbr 1000 ------- 2 1.0 2.0 121 127
+ 0.106182 1 2 cbr 1000 ------- 2 1.0 2.0 146 154
- 0.1064 1 2 cbr 1000 ------- 2 1.0 2.0 137 143
r 0.1068 1 2 cbr 1000 ------- 2 1.0 2.0 123 129
+ 0.106909 1 2 cbr 1000 ------- 2 1.0 2.0 147 155
- 0.1072 1 2 cbr 1000 ------- 2 1.0 2.0 138 144
r 0.1076 1 2 cbr 1000 ------- 2 1.0 2.0 124 130
+ 0.107636 1 2 cbr 1000 ------- 2 1.0 2.0 148 156
- 0.108 1 2 cbr 1000 ------- 2 1.0 2.0 139 145
+ 0.108364 1 2 cbr 1000 ------- 2 1.0 2.0 149 157
r 0.1084 1 2 cbr 1000 ------- 2 1.0 2.0 125 131
- 0.1088 1 2 cbr 1000 ------- 2 1.0 2.0 140 146
+ 0.109091 1 2 cbr 1000 ------- 2 1.0 2.0 150 158
r 0.1092 1 2 cbr 1000 ------- 2 1.0 2.0 126 132
- 0.1096 1 2 cbr 1000 ------- 2 1.0 2.0 141 147
+ 0.109818 1 2 cbr 1000 ------- 2 1.0 2.0 151 159
r 0.11 1 2 cbr 1000 ------- 2 1.0 2.0 127 133
- 0.1104 1 2 cbr 1000 ------- 2 1.0 2.0 142 149
+ 0.110545 1 2 cbr 1000 ------- 2 1.0 2.0 152 160
r 0.1108 1 2 cbr 1000 ------- 2 1.0 2.0 128 134
- 0.1112 1 2 cbr 1000 ------- 2 1.0 2.0 143 151
+ 0.111273 1 2 cbr 1000 ------- 2 1.0 2.0 153 161
r 0.1116 1 2 cbr 1000 ------- 2 1.0 2.0 129 135
- 0.112 1 2 cbr 1000 ------- 2 1.0 2.0 145 153
+ 0.112 1 2 cbr 1000 ------- 2 1.0 2.0 154 162
r 0.1124 1 2 cbr 1000 ------- 2 1.0 2.0 130 136
+ 0.112727 1 2 cbr 1000 ------- 2 1.0 2.0 155 163
d 0.112727 1 2 cbr 1000 ------- 2 1.0 2.0 155 163
- 0.1128 1 2 cbr 1000 ------- 2 1.0 2.0 146 154
r 0.1132 1 2 cbr 1000 ------- 2 1.0 2.0 131 137
r 0.113232 3 2 ack 40 ------- 2 3.0 0.0 1 148
+ 0.113232 2 1 ack 40 ------- 2 3.0 0.0 1 148
- 0.113232 2 1 ack 40 ------- 2 3.0 0.0 1 148
+ 0.113455 1 2 cbr 1000 ------- 2 1.0 2.0 156 164
- 0.1136 1 2 cbr 1000 ------- 2 1.0 2.0 147 155
r 0.114 1 2 cbr 1000 ------- 2 1.0 2.0 132 138
r 0.114032 5 2 ack 40 ------- 3 5.0 4.0 1 150
+ 0.114032 2 1 ack 40 ------- 3 5.0 4.0 1 150
- 0.114032 2 1 ack 40 ------- 3 5.0 4.0 1 150
+ 0.114182 1 2 cbr 1000 ------- 2 1.0 2.0 157 165
- 0.1144 1 2 cbr 1000 ------- 2 1.0 2.0 148 156
r 0.1148 1 2 cbr 1000 ------- 2 1.0 2.0 134 140
+ 0.114909 1 2 cbr 1000 ------- 2 1.0 2.0 158 166
- 0.1152 1 2 cbr 1000 ------- 2 1.0 2.0 149 157
r 0.1156 1 2 cbr 1000 ------- 2 1.0 2.0 135 141
+ 0.115636 1 2 cbr 1000 ------- 2 1.0 2.0 159 167
- 0.116 1 2 cbr 1000 ------- 2 1.0 2.0 150 158
+ 0.116364 1 2 cbr 1000 ------- 2 1.0 2.0 160 168
r 0.1164 1 2 cbr 1000 ------- 2 1.0 2.0 136 142
- 0.1168 1 2 cbr 1000 ------- 2 1.0 2.0 151 159
+ 0.117091 1 2 cbr 1000 ------- 2 1.0 2.0 161 169
r 0.1172 1 2 cbr 1000 ------- 2 1.0 2.0 137 143
- 0.1176 1 2 cbr 1000 ------- 2 1.0 2.0 152 160
+ 0.117818 1 2 cbr 1000 ------- 2 1.0 2.0 162 170
r 0.118 1 2 cbr 1000 ------- 2 1.0 2.0 138 144
- 0.1184 1 2 cbr 1000 ------- 2 1.0 2.0 153 161
+ 0.118545 1 2 cbr 1000 ------- 2 1.0 2.0 163 171
r 0.1188 1 2 cbr 1000 ------- 2 1.0 2.0 139 145
- 0.1192 1 2 cbr 1000 ------- 2 1.0 2.0 154 162
+ 0.119273 1 2 cbr 1000 ------- 2 1.0 2.0 164 172
r 0.1196 1 2 cbr 1000 ------- 2 1.0 2.0 140 146
- 0.12 1 2 cbr 1000 ------- 2 1.0 2.0 156 164
+ 0.12 1 2 cbr 1000 ------- 2 1.0 2.0 165 173
r 0.1204 1 2 cbr 1000 ------- 2 1.0 2.0 141 147
+ 0.120727 1 2 cbr 1000 ------- 2 1.0 2.0 166 174
d 0.120727 1 2 cbr 1000 ------- 2 1.0 2.0 166 174
- 0.1208 1 2 cbr 1000 ------- 2 1.0 2.0 157 165
r 0.1212 1 2 cbr 1000 ------- 2 1.0 2.0 142 149
+ 0.121455 1 2 cbr 1000 ------- 2 1.0 2.0 167 175
- 0.1216 1 2 cbr 1000 ------- 2 1.0 2.0 158 166
r 0.122 1 2 cbr 1000 ------- 2 1.0 2.0 143 151
+ 0.122182 1 2 cbr 1000 ------- 2 1.0 2.0 168 176
- 0.1224 1 2 cbr 1000 ------- 2 1.0 2.0 159 167
r 0.1228 1 2 cbr 1000 ------- 2 1.0 2.0 145 153
+ 0.122909 1 2 cbr 1000 ------- 2 1.0 2.0 169 177
- 0.1232 1 2 cbr 1000 ------- 2 1.0 2.0 160 168
r 0.123264 2 1 ack 40 ------- 2 3.0 0.0 1 148
+ 0.123264 1 0 ack 40 ------- 2 3.0 0.0 1 148
- 0.123264 1 0 ack 40 ------- 2 3.0 0.0 1 148
r 0.1236 1 2 cbr 1000 ------- 2 1.0 2.0 146 154
+ 0.123636 1 2 cbr 1000 ------- 2 1.0 2.0 170 178
- 0.124 1 2 cbr 1000 ------- 2 1.0 2.0 161 169
r 0.124064 2 1 ack 40 ------- 3 5.0 4.0 1 150
+ 0.124064 1 4 ack 40 ------- 3 5.0 4.0 1 150
- 0.124064 1 4 ack 40 ------- 3 5.0 4.0 1 150
+ 0.124364 1 2 cbr 1000 ------- 2 1.0 2.0 171 179
r 0.1244 1 2 cbr 1000 ------- 2 1.0 2.0 147 155
- 0.1248 1 2 cbr 1000 ------- 2 1.0 2.0 162 170
+ 0.125091 1 2 cbr 1000 ------- 2 1.0 2.0 172 180
r 0.1252 1 2 cbr 1000 ------- 2 1.0 2.0 148 156
- 0.1256 1 2 cbr 1000 ------- 2 1.0 2.0 163 171
+ 0.125818 1 2 cbr 1000 ------- 2 1.0 2.0 173 181
r 0.126 1 2 cbr 1000 ------- 2 1.0 2.0 149 157
- 0.1264 1 2 cbr 1000 ------- 2 1.0 2.0 164 172
+ 0.126545 1 2 cbr 1000 ------- 2 1.0 2.0 174 182
r 0.1268 1 2 cbr 1000 ------- 2 1.0 2.0 150 158
- 0.1272 1 2 cbr 1000 ------- 2 1.0 2.0 165 173
+ 0.127273 1 2 cbr 1000 ------- 2 1.0 2.0 175 183
r 0.1276 1 2 cbr 1000 ------- 2 1.0 2.0 151 159
- 0.128 1 2 cbr 1000 ------- 2 1.0 2.0 167 175
+ 0.128 1 2 cbr 1000 ------- 2 1.0 2.0 176 184
r 0.1284 1 2 cbr 1000 ------- 2 1.0 2.0 152 160
+ 0.128727 1 2 cbr 1000 ------- 2 1.0 2.0 177 185
d 0.128727 1 2 cbr 1000 ------- 2 1.0 2.0 177 185
- 0.1288 1 2 cbr 1000 ------- 2 1.0 2.0 168 176
r 0.1292 1 2 cbr 1000 ------- 2 1.0 2.0 153 161
+ 0.129455 1 2 cbr 1000 ------- 2 1.0 2.0 178 186
- 0.1296 1 2 cbr 1000 ------- 2 1.0 2.0 169 177
r 0.13 1 2 cbr 1000 ------- 2 1.0 2.0 154 162
+ 0.130182 1 2 cbr 1000 ------- 2 1.0 2.0 179 187
- 0.1304 1 2 cbr 1000 ------- 2 1.0 2.0 170 178
r 0.1308 1 2 cbr 1000 ------- 2 1.0 2.0 156 164
+ 0.130909 1 2 cbr 1000 ------- 2 1.0 2.0 180 188
- 0.1312 1 2 cbr 1000 ------- 2 1.0 2.0 171 179
r 0.1316 1 2 cbr 1000 ------- 2 1.0 2.0 157 165
+ 0.131636 1 2 cbr 1000 ------- 2 1.0 2.0 181 189
- 0.132 1 2 cbr 1000 ------- 2 1.0 2.0 172 180
+ 0.132364 1 2 cbr 1000 ------- 2 1.0 2.0 182 190
r 0.1324 1 2 cbr 1000 ------- 2 1.0 2.0 158 166
- 0.1328 1 2 cbr 1000 ------- 2 1.0 2.0 173 181
+ 0.133091 1 2 cbr 1000 ------- 2 1.0 2.0 183 191
r 0.1332 1 2 cbr 1000 ------- 2 1.0 2.0 159 167
r 0.133296 1 0 ack 40 ------- 2 3.0 0.0 1 148
+ 0.133296 0 1 tcp 1000 ------- 2 0.0 3.0 2 192
- 0.133296 0 1 tcp 1000 ------- 2 0.0 3.0 2 192
+ 0.133296 0 1 tcp 1000 ------- 2 0.0 3.0 3 193
+ 0.133296 0 1 tcp 1000 ------- 2 0.0 3.0 4 194
- 0.1336 1 2 cbr 1000 ------- 2 1.0 2.0 174 182
+ 0.133818 1 2 cbr 1000 ------- 2 1.0 2.0 184 195
r 0.134 1 2 cbr 1000 ------- 2 1.0 2.0 160 168
r 0.134096 1 4 ack 40 ------- 3 5.0 4.0 1 150
+ 0.134096 4 1 tcp 1000 ------- 3 4.0 5.0 2 196
- 0.134096 4 1 tcp 1000 ------- 3 4.0 5.0 2 196
+ 0.134096 4 1 tcp 1000 ------- 3 4.0 5.0 3 197
+ 0.134096 4 1 tcp 1000 ------- 3 4.0 5.0 4 198
- 0.134096 0 1 tcp 1000 ------- 2 0.0 3.0 3 193
- 0.1344 1 2 cbr 1000 ------- 2 1.0 2.0 175 183
+ 0.134545 1 2 cbr 1000 ------- 2 1.0 2.0 185 199
r 0.1348 1 2 cbr 1000 ------- 2 1.0 2.0 161 169
- 0.134896 4 1 tcp 1000 ------- 3 4.0 5.0 3 197
- 0.134896 0 1 tcp 1000 ------- 2 0.0 3.0 4 194
- 0.1352 1 2 cbr 1000 ------- 2 1.0 2.0 176 184
+ 0.135273 1 2 cbr 1000 ------- 2 1.0 2.0 186 200
r 0.1356 1 2 cbr 1000 ------- 2 1.0 2.0 162 170
- 0.135696 4 1 tcp 1000 ------- 3 4.0 5.0 4 198
- 0.136 1 2 cbr 1000 ------- 2 1.0 2.0 178 186
+ 0.136 1 2 cbr 1000 ------- 2 1.0 2.0 187 201
r 0.1364 1 2 cbr 1000 ------- 2 1.0 2.0 163 171
+ 0.136727 1 2 cbr 1000 ------- 2 1.0 2.0 188 202
d 0.136727 1 2 cbr 1000 ------- 2 1.0 2.0 188 202
- 0.1368 1 2 cbr 1000 ------- 2 1.0 2.0 179 187
r 0.1372 1 2 cbr 1000 ------- 2 1.0 2.0 164 172
+ 0.137455 1 2 cbr 1000 ------- 2 1.0 2.0 189 203
- 0.1376 1 2 cbr 1000 ------- 2 1.0 2.0 180 188
r 0.138 1 2 cbr 1000 ------- 2 1.0 2.0 165 173
+ 0.138182 1 2 cbr 1000 ------- 2 1.0 2.0 190 204
- 0.1384 1 2 cbr 1000 ------- 2 1.0 2.0 181 189
r 0.1388 1 2 cbr 1000 ------- 2 1.0 2.0 167 175
+ 0.138909 1 2 cbr 1000 ------- 2 1.0 2.0 191 205
- 0.1392 1 2 cbr 1000 ------- 2 1.0 2.0 182 190
r 0.1396 1 2 cbr 1000 ------- 2 1.0 2.0 168 176
+ 0.139636 1 2 cbr 1000 ------- 2 1.0 2.0 192 206
- 0.14 1 2 cbr 1000 ------- 2 1.0 2.0 183 191
+ 0.140364 1 2 cbr 1000 ------- 2 1.0 2.0 193 207
r 0.1404 1 2 cbr 1000 ------- 2 1.0 2.0 169 177
- 0.1408 1 2 cbr 1000 ------- 2 1.0 2.0 184 195
+ 0.141091 1 2 cbr 1000 ------- 2 1.0 2.0 194 208
r 0.1412 1 2 cbr 1000 ------- 2 1.0 2.0 170 178
- 0.1416 1 2 cbr 1000 ------- 2 1.0 2.0 185 199
+ 0.141818 1 2 cbr 1000 ------- 2 1.0 2.0 195 209
r 0.142 1 2 cbr 1000 ------- 2 1.0 2.0 171 179
- 0.1424 1 2 cbr 1000 ------- 2 1.0 2.0 186 200
+ 0.142545 1 2 cbr 1000 ------- 2 1.0 2.0 196 210
r 0.1428 1 2 cbr 1000 ------- 2 1.0 2.0 172 180
- 0.1432 1 2 cbr 1000 ------- 2 1.0 2.0 187 201
+ 0.143273 1 2 cbr 1000 ------- 2 1.0 2.0 197 211
r 0.1436 1 2 cbr 1000 ------- 2 1.0 2.0 173 181
- 0.144 1 2 cbr 1000 ------- 2 1.0 2.0 189 203
+ 0.144 1 2 cbr 1000 ------- 2 1.0 2.0 198 212
r 0.144096 0 1 tcp 1000 ------- 2 0.0 3.0 2 192