+ 0 1 2 cbr 1000 ------- 2 1.0 2.0 0 0
- 0 1 2 cbr 1000 ------- 2 1.0 2.0 0 0
+ 0 0 1 tcp 40 ------- 2 0.0 3.0 0 1
- 0 0 1 tcp 40 ------- 2 0.0 3.0 0 1
+ 0 4 1 tcp 40 ------- 3 4.0 5.0 0 2
- 0 4 1 tcp 40 ------- 3 4.0 5.0 0 2
+ 0.001 1 2 cbr 1000 ------- 2 1.0 2.0 1 3
- 0.001 1 2 cbr 1000 ------- 2 1.0 2.0 1 3
+ 0.002 1 2 cbr 1000 ------- 2 1.0 2.0 2 4
- 0.002 1 2 cbr 1000 ------- 2 1.0 2.0 2 4
+ 0.003 1 2 cbr 1000 ------- 2 1.0 2.0 3 5
- 0.003 1 2 cbr 1000 ------- 2 1.0 2.0 3 5
+ 0.004 1 2 cbr 1000 ------- 2 1.0 2.0 4 6
- 0.004 1 2 cbr 1000 ------- 2 1.0 2.0 4 6
+ 0.005 1 2 cbr 1000 ------- 2 1.0 2.0 5 7
- 0.005 1 2 cbr 1000 ------- 2 1.0 2.0 5 7
+ 0.006 1 2 cbr 1000 ------- 2 1.0 2.0 6 8
- 0.006 1 2 cbr 1000 ------- 2 1.0 2.0 6 8
+ 0.007 1 2 cbr 1000 ------- 2 1.0 2.0 7 9
- 0.007 1 2 cbr 1000 ------- 2 1.0 2.0 7 9
+ 0.008 1 2 cbr 1000 ------- 2 1.0 2.0 8 10
- 0.008 1 2 cbr 1000 ------- 2 1.0 2.0 8 10
+ 0.009 1 2 cbr 1000 ------- 2 1.0 2.0 9 11
- 0.009 1 2 cbr 1000 ------- 2 1.0 2.0 9 11
+ 0.01 1 2 cbr 1000 ------- 2 1.0 2.0 10 12
- 0.01 1 2 cbr 1000 ------- 2 1.0 2.0 10 12
r 0.010032 0 1 tcp 40 ------- 2 0.0 3.0 0 1
+ 0.010032 1 2 tcp 40 ------- 2 0.0 3.0 0 1
r 0.010032 4 1 tcp 40 ------- 3 4.0 5.0 0 2
+ 0.010032 1 2 tcp 40 ------- 3 4.0 5.0 0 2
r 0.0108 1 2 cbr 1000 ------- 2 1.0 2.0 0 0
- 0.0108 1 2 tcp 40 ------- 2 0.0 3.0 0 1
- 0.010832 1 2 tcp 40 ------- 3 4.0 5.0 0 2
+ 0.011 1 2 cbr 1000 ------- 2 1.0 2.0 11 13
- 0.011 1 2 cbr 1000 ------- 2 1.0 2.0 11 13
r 0.0118 1 2 cbr 1000 ------- 2 1.0 2.0 1 3
+ 0.012 1 2 cbr 1000 ------- 2 1.0 2.0 12 14
- 0.012 1 2 cbr 1000 ------- 2 1.0 2.0 12 14
r 0.0128 1 2 cbr 1000 ------- 2 1.0 2.0 2 4
+ 0.013 1 2 cbr 1000 ------- 2 1.0 2.0 13 15
- 0.013 1 2 cbr 1000 ------- 2 1.0 2.0 13 15
r 0.0138 1 2 cbr 1000 ------- 2 1.0 2.0 3 5
+ 0.014 1 2 cbr 1000 ------- 2 1.0 2.0 14 16
- 0.014 1 2 cbr 1000 ------- 2 1.0 2.0 14 16
r 0.0148 1 2 cbr 1000 ------- 2 1.0 2.0 4 6
+ 0.015 1 2 cbr 1000 ------- 2 1.0 2.0 15 17
- 0.015 1 2 cbr 1000 ------- 2 1.0 2.0 15 17
r 0.0158 1 2 cbr 1000 ------- 2 1.0 2.0 5 7
+ 0.016 1 2 cbr 1000 ------- 2 1.0 2.0 16 18
- 0.016 1 2 cbr 1000 ------- 2 1.0 2.0 16 18
r 0.0168 1 2 cbr 1000 ------- 2 1.0 2.0 6 8
+ 0.017 1 2 cbr 1000 ------- 2 1.0 2.0 17 19
- 0.017 1 2 cbr 1000 ------- 2 1.0 2.0 17 19
r 0.0178 1 2 cbr 1000 ------- 2 1.0 2.0 7 9
+ 0.018 1 2 cbr 1000 ------- 2 1.0 2.0 18 20
- 0.018 1 2 cbr 1000 ------- 2 1.0 2.0 18 20
r 0.0188 1 2 cbr 1000 ------- 2 1.0 2.0 8 10
+ 0.019 1 2 cbr 1000 ------- 2 1.0 2.0 19 21
- 0.019 1 2 cbr 1000 ------- 2 1.0 2.0 19 21
r 0.0198 1 2 cbr 1000 ------- 2 1.0 2.0 9 11
+ 0.02 1 2 cbr 1000 ------- 2 1.0 2.0 20 22
- 0.02 1 2 cbr 1000 ------- 2 1.0 2.0 20 22
r 0.0208 1 2 cbr 1000 ------- 2 1.0 2.0 10 12
r 0.020832 1 2 tcp 40 ------- 2 0.0 3.0 0 1
+ 0.020832 2 3 tcp 40 ------- 2 0.0 3.0 0 1
- 0.020832 2 3 tcp 40 ------- 2 0.0 3.0 0 1
r 0.020864 1 2 tcp 40 ------- 3 4.0 5.0 0 2
+ 0.020864 2 5 tcp 40 ------- 3 4.0 5.0 0 2
- 0.020864 2 5 tcp 40 ------- 3 4.0 5.0 0 2
+ 0.021 1 2 cbr 1000 ------- 2 1.0 2.0 21 23
- 0.021 1 2 cbr 1000 ------- 2 1.0 2.0 21 23
r 0.0218 1 2 cbr 1000 ------- 2 1.0 2.0 11 13
+ 0.022 1 2 cbr 1000 ------- 2 1.0 2.0 22 24
- 0.022 1 2 cbr 1000 ------- 2 1.0 2.0 22 24
r 0.0228 1 2 cbr 1000 ------- 2 1.0 2.0 12 14
+ 0.023 1 2 cbr 1000 ------- 2 1.0 2.0 23 25
- 0.023 1 2 cbr 1000 ------- 2 1.0 2.0 23 25
r 0.0238 1 2 cbr 1000 ------- 2 1.0 2.0 13 15
+ 0.024 1 2 cbr 1000 ------- 2 1.0 2.0 24 26
- 0.024 1 2 cbr 1000 ------- 2 1.0 2.0 24 26
r 0.0248 1 2 cbr 1000 ------- 2 1.0 2.0 14 16
+ 0.025 1 2 cbr 1000 ------- 2 1.0 2.0 25 27
- 0.025 1 2 cbr 1000 ------- 2 1.0 2.0 25 27
r 0.0258 1 2 cbr 1000 ------- 2 1.0 2.0 15 17
+ 0.026 1 2 cbr 1000 ------- 2 1.0 2.0 26 28
- 0.026 1 2 cbr 1000 ------- 2 1.0 2.0 26 28
r 0.0268 1 2 cbr 1000 ------- 2 1.0 2.0 16 18
+ 0.027 1 2 cbr 1000 ------- 2 1.0 2.0 27 29
- 0.027 1 2 cbr 1000 ------- 2 1.0 2.0 27 29
r 0.0278 1 2 cbr 1000 ------- 2 1.0 2.0 17 19
+ 0.028 1 2 cbr 1000 ------- 2 1.0 2.0 28 30
- 0.028 1 2 cbr 1000 ------- 2 1.0 2.0 28 30
r 0.0288 1 2 cbr 1000 ------- 2 1.0 2.0 18 20
+ 0.029 1 2 cbr 1000 ------- 2 1.0 2.0 29 31
- 0.029 1 2 cbr 1000 ------- 2 1.0 2.0 29 31
r 0.0298 1 2 cbr 1000 ------- 2 1.0 2.0 19 21
+ 0.03 1 2 cbr 1000 ------- 2 1.0 2.0 30 32
- 0.03 1 2 cbr 1000 ------- 2 1.0 2.0 30 32
r 0.0308 1 2 cbr 1000 ------- 2 1.0 2.0 20 22
r 0.030864 2 3 tcp 40 ------- 2 0.0 3.0 0 1
+ 0.030864 3 2 ack 40 ------- 2 3.0 0.0 0 33
- 0.030864 3 2 ack 40 ------- 2 3.0 0.0 0 33
r 0.030896 2 5 tcp 40 ------- 3 4.0 5.0 0 2
+ 0.030896 5 2 ack 40 ------- 3 5.0 4.0 0 34
- 0.030896 5 2 ack 40 ------- 3 5.0 4.0 0 34
+ 0.031 1 2 cbr 1000 ------- 2 1.0 2.0 31 35
- 0.031 1 2 cbr 1000 ------- 2 1.0 2.0 31 35
r 0.0318 1 2 cbr 1000 ------- 2 1.0 2.0 21 23
+ 0.032 1 2 cbr 1000 ------- 2 1.0 2.0 32 36
- 0.032 1 2 cbr 1000 ------- 2 1.0 2.0 32 36
r 0.0328 1 2 cbr 1000 ------- 2 1.0 2.0 22 24
+ 0.033 1 2 cbr 1000 ------- 2 1.0 2.0 33 37
- 0.033 1 2 cbr 1000 ------- 2 1.0 2.0 33 37
r 0.0338 1 2 cbr 1000 ------- 2 1.0 2.0 23 25
+ 0.034 1 2 cbr 1000 ------- 2 1.0 2.0 34 38
- 0.034 1 2 cbr 1000 ------- 2 1.0 2.0 34 38
r 0.0348 1 2 cbr 1000 ------- 2 1.0 2.0 24 26
+ 0.035 1 2 cbr 1000 ------- 2 1.0 2.0 35 39
- 0.035 1 2 cbr 1000 ------- 2 1.0 2.0 35 39
r 0.0358 1 2 cbr 1000 ------- 2 1.0 2.0 25 27
+ 0.036 1 2 cbr 1000 ------- 2 1.0 2.0 36 40
- 0.036 1 2 cbr 1000 ------- 2 1.0 2.0 36 40
r 0.0368 1 2 cbr 1000 ------- 2 1.0 2.0 26 28
+ 0.037 1 2 cbr 1000 ------- 2 1.0 2.0 37 41
- 0.037 1 2 cbr 1000 ------- 2 1.0 2.0 37 41
r 0.0378 1 2 cbr 1000 ------- 2 1.0 2.0 27 29
+ 0.038 1 2 cbr 1000 ------- 2 1.0 2.0 38 42
- 0.038 1 2 cbr 1000 ------- 2 1.0 2.0 38 42
r 0.0388 1 2 cbr 1000 ------- 2 1.0 2.0 28 30
+ 0.039 1 2 cbr 1000 ------- 2 1.0 2.0 39 43
- 0.039 1 2 cbr 1000 ------- 2 1.0 2.0 39 43
r 0.0398 1 2 cbr 1000 ------- 2 1.0 2.0 29 31
+ 0.04 1 2 cbr 1000 ------- 2 1.0 2.0 40 44
- 0.04 1 2 cbr 1000 ------- 2 1.0 2.0 40 44
r 0.0408 1 2 cbr 1000 ------- 2 1.0 2.0 30 32
r 0.040896 3 2 ack 40 ------- 2 3.0 0.0 0 33
+ 0.040896 2 1 ack 40 ------- 2 3.0 0.0 0 33
- 0.040896 2 1 ack 40 ------- 2 3.0 0.0 0 33
r 0.040928 5 2 ack 40 ------- 3 5.0 4.0 0 34
+ 0.040928 2 1 ack 40 ------- 3 5.0 4.0 0 34
- 0.040928 2 1 ack 40 ------- 3 5.0 4.0 0 34
+ 0.041 1 2 cbr 1000 ------- 2 1.0 2.0 41 45
- 0.041 1 2 cbr 1000 ------- 2 1.0 2.0 41 45
r 0.0418 1 2 cbr 1000 ------- 2 1.0 2.0 31 35
+ 0.042 1 2 cbr 1000 ------- 2 1.0 2.0 42 46
- 0.042 1 2 cbr 1000 ------- 2 1.0 2.0 42 46
r 0.0428 1 2 cbr 1000 ------- 2 1.0 2.0 32 36
+ 0.043 1 2 cbr 1000 ------- 2 1.0 2.0 43 47
- 0.043 1 2 cbr 1000 ------- 2 1.0 2.0 43 47
r 0.0438 1 2 cbr 1000 ------- 2 1.0 2.0 33 37
+ 0.044 1 2 cbr 1000 ------- 2 1.0 2.0 44 48
- 0.044 1 2 cbr 1000 ------- 2 1.0 2.0 44 48
r 0.0448 1 2 cbr 1000 ------- 2 1.0 2.0 34 38
+ 0.045 1 2 cbr 1000 ------- 2 1.0 2.0 45 49
- 0.045 1 2 cbr 1000 ------- 2 1.0 2.0 45 49
r 0.0458 1 2 cbr 1000 ------- 2 1.0 2.0 35 39
+ 0.046 1 2 cbr 1000 ------- 2 1.0 2.0 46 50
- 0.046 1 2 cbr 1000 ------- 2 1.0 2.0 46 50
r 0.0468 1 2 cbr 1000 ------- 2 1.0 2.0 36 40
+ 0.047 1 2 cbr 1000 ------- 2 1.0 2.0 47 51
- 0.047 1 2 cbr 1000 ------- 2 1.0 2.0 47 51
r 0.0478 1 2 cbr 1000 ------- 2 1.0 2.0 37 41
+ 0.048 1 2 cbr 1000 ------- 2 1.0 2.0 48 52
- 0.048 1 2 cbr 1000 ------- 2 1.0 2.0 48 52
r 0.0488 1 2 cbr 1000 ------- 2 1.0 2.0 38 42
+ 0.049 1 2 cbr 1000 ------- 2 1.0 2.0 49 53
- 0.049 1 2 cbr 1000 ------- 2 1.0 2.0 49 53
r 0.0498 1 2 cbr 1000 ------- 2 1.0 2.0 39 43
+ 0.05 1 2 cbr 1000 ------- 2 1.0 2.0 50 54
- 0.05 1 2 cbr 1000 ------- 2 1.0 2.0 50 54
r 0.0508 1 2 cbr 1000 ------- 2 1.0 2.0 40 44
r 0.050928 2 1 ack 40 ------- 2 3.0 0.0 0 33
+ 0.050928 1 0 ack 40 ------- 2 3.0 0.0 0 33
- 0.050928 1 0 ack 40 ------- 2 3.0 0.0 0 33
r 0.05096 2 1 ack 40 ------- 3 5.0 4.0 0 34
+ 0.05096 1 4 ack 40 ------- 3 5.0 4.0 0 34
- 0.05096 1 4 ack 40 ------- 3 5.0 4.0 0 34
+ 0.051 1 2 cbr 1000 ------- 2 1.0 2.0 51 55
- 0.051 1 2 cbr 1000 ------- 2 1.0 2.0 51 55
r 0.0518 1 2 cbr 1000 ------- 2 1.0 2.0 41 45
+ 0.052 1 2 cbr 1000 ------- 2 1.0 2.0 52 56
- 0.052 1 2 cbr 1000 ------- 2 1.0 2.0 52 56
r 0.0528 1 2 cbr 1000 ------- 2 1.0 2.0 42 46
+ 0.053 1 2 cbr 1000 ------- 2 1.0 2.0 53 57
- 0.053 1 2 cbr 1000 ------- 2 1.0 2.0 53 57
r 0.0538 1 2 cbr 1000 ------- 2 1.0 2.0 43 47
+ 0.054 1 2 cbr 1000 ------- 2 1.0 2.0 54 58
- 0.054 1 2 cbr 1000 ------- 2 1.0 2.0 54 58
r 0.0548 1 2 cbr 1000 ------- 2 1.0 2.0 44 48
+ 0.055 1 2 cbr 1000 ------- 2 1.0 2.0 55 59
- 0.055 1 2 cbr 1000 ------- 2 1.0 2.0 55 59
r 0.0558 1 2 cbr 1000 ------- 2 1.0 2.0 45 49
+ 0.056 1 2 cbr 1000 ------- 2 1.0 2.0 56 60
- 0.056 1 2 cbr 1000 ------- 2 1.0 2.0 56 60
r 0.0568 1 2 cbr 1000 ------- 2 1.0 2.0 46 50
+ 0.057 1 2 cbr 1000 ------- 2 1.0 2.0 57 61
- 0.057 1 2 cbr 1000 ------- 2 1.0 2.0 57 61
r 0.0578 1 2 cbr 1000 ------- 2 1.0 2.0 47 51
+ 0.058 1 2 cbr 1000 ------- 2 1.0 2.0 58 62
- 0.058 1 2 cbr 1000 ------- 2 1.0 2.0 58 62
r 0.0588 1 2 cbr 1000 ------- 2 1.0 2.0 48 52
+ 0.059 1 2 cbr 1000 ------- 2 1.0 2.0 59 63
- 0.059 1 2 cbr 1000 ------- 2 1.0 2.0 59 63
r 0.0598 1 2 cbr 1000 ------- 2 1.0 2.0 49 53
+ 0.06 1 2 cbr 1000 ------- 2 1.0 2.0 60 64
- 0.06 1 2 cbr 1000 ------- 2 1.0 2.0 60 64
r 0.0608 1 2 cbr 1000 ------- 2 1.0 2.0 50 54
r 0.06096 1 0 ack 40 ------- 2 3.0 0.0 0 33
+ 0.06096 0 1 tcp 1040 ------- 2 0.0 3.0 1 65
- 0.06096 0 1 tcp 1040 ------- 2 0.0 3.0 1 65
+ 0.06096 0 1 tcp 1040 ------- 2 0.0 3.0 2 66
r 0.060992 1 4 ack 40 ------- 3 5.0 4.0 0 34
+ 0.060992 4 1 tcp 1040 ------- 3 4.0 5.0 1 67
- 0.060992 4 1 tcp 1040 ------- 3 4.0 5.0 1 67
+ 0.060992 4 1 tcp 1040 ------- 3 4.0 5.0 2 68
+ 0.061 1 2 cbr 1000 ------- 2 1.0 2.0 61 69
- 0.061 1 2 cbr 1000 ------- 2 1.0 2.0 61 69
- 0.061792 0 1 tcp 1040 ------- 2 0.0 3.0 2 66
r 0.0618 1 2 cbr 1000 ------- 2 1.0 2.0 51 55
- 0.061824 4 1 tcp 1040 ------- 3 4.0 5.0 2 68
+ 0.062 1 2 cbr 1000 ------- 2 1.0 2.0 62 70
- 0.062 1 2 cbr 1000 ------- 2 1.0 2.0 62 70
r 0.0628 1 2 cbr 1000 ------- 2 1.0 2.0 52 56
+ 0.063 1 2 cbr 1000 ------- 2 1.0 2.0 63 71
- 0.063 1 2 cbr 1000 ------- 2 1.0 2.0 63 71
r 0.0638 1 2 cbr 1000 ------- 2 1.0 2.0 53 57
+ 0.064 1 2 cbr 1000 ------- 2 1.0 2.0 64 72
- 0.064 1 2 cbr 1000 ------- 2 1.0 2.0 64 72
r 0.0648 1 2 cbr 1000 ------- 2 1.0 2.0 54 58
+ 0.065 1 2 cbr 1000 ------- 2 1.0 2.0 65 73
- 0.065 1 2 cbr 1000 ------- 2 1.0 2.0 65 73
r 0.0658 1 2 cbr 1000 ------- 2 1.0 2.0 55 59
+ 0.066 1 2 cbr 1000 ------- 2 1.0 2.0 66 74
- 0.066 1 2 cbr 1000 ------- 2 1.0 2.0 66 74
r 0.0668 1 2 cbr 1000 ------- 2 1.0 2.0 56 60
+ 0.067 1 2 cbr 1000 ------- 2 1.0 2.0 67 75
- 0.067 1 2 cbr 1000 ------- 2 1.0 2.0 67 75
r 0.0678 1 2 cbr 1000 ------- 2 1.0 2.0 57 61
+ 0.068 1 2 cbr 1000 ------- 2 1.0 2.0 68 76
- 0.068 1 2 cbr 1000 ------- 2 1.0 2.0 68 76
r 0.0688 1 2 cbr 1000 ------- 2 1.0 2.0 58 62
+ 0.069 1 2 cbr 1000 ------- 2 1.0 2.0 69 77
- 0.069 1 2 cbr 1000 ------- 2 1.0 2.0 69 77
r 0.0698 1 2 cbr 1000 ------- 2 1.0 2.0 59 63
+ 0.07 1 2 cbr 1000 ------- 2 1.0 2.0 70 78
- 0.07 1 2 cbr 1000 ------- 2 1.0 2.0 70 78
r 0.0708 1 2 cbr 1000 ------- 2 1.0 2.0 60 64
+ 0.071 1 2 cbr 1000 ------- 2 1.0 2.0 71 79
- 0.071 1 2 cbr 1000 ------- 2 1.0 2.0 71 79
r 0.071792 0 1 tcp 1040 ------- 2 0.0 3.0 1 65
+ 0.071792 1 2 tcp 1040 ------- 2 0.0 3.0 1 65
r 0.0718 1 2 cbr 1000 ------- 2 1.0 2.0 61 69
- 0.0718 1 2 tcp 1040 ------- 2 0.0 3.0 1 65
r 0.071824 4 1 tcp 1040 ------- 3 4.0 5.0 1 67
+ 0.071824 1 2 tcp 1040 ------- 3 4.0 5.0 1 67
+ 0.072 1 2 cbr 1000 ------- 2 1.0 2.0 72 80
r 0.072624 0 1 tcp 1040 ------- 2 0.0 3.0 2 66
+ 0.072624 1 2 tcp 1040 ------- 2 0.0 3.0 2 66
- 0.072632 1 2 tcp 1040 ------- 3 4.0 5.0 1 67
r 0.072656 4 1 tcp 1040 ------- 3 4.0 5.0 2 68
+ 0.072656 1 2 tcp 1040 ------- 3 4.0 5.0 2 68
r 0.0728 1 2 cbr 1000 ------- 2 1.0 2.0 62 70
+ 0.073 1 2 cbr 1000 ------- 2 1.0 2.0 73 81
- 0.073464 1 2 cbr 1000 ------- 2 1.0 2.0 72 80
r 0.0738 1 2 cbr 1000 ------- 2 1.0 2.0 63 71
+ 0.074 1 2 cbr 1000 ------- 2 1.0 2.0 74 82
- 0.074264 1 2 tcp 1040 ------- 2 0.0 3.0 2 66
r 0.0748 1 2 cbr 1000 ------- 2 1.0 2.0 64 72
+ 0.075 1 2 cbr 1000 ------- 2 1.0 2.0 75 83
- 0.075096 1 2 tcp 1040 ------- 3 4.0 5.0 2 68
r 0.0758 1 2 cbr 1000 ------- 2 1.0 2.0 65 73
- 0.075928 1 2 cbr 1000 ------- 2 1.0 2.0 73 81
+ 0.076 1 2 cbr 1000 ------- 2 1.0 2.0 76 84
- 0.076728 1 2 cbr 1000 ------- 2 1.0 2.0 74 82
r 0.0768 1 2 cbr 1000 ------- 2 1.0 2.0 66 74
+ 0.077 1 2 cbr 1000 ------- 2 1.0 2.0 77 85
- 0.077528 1 2 cbr 1000 ------- 2 1.0 2.0 75 83
r 0.0778 1 2 cbr 1000 ------- 2 1.0 2.0 67 75
+ 0.078 1 2 cbr 1000 ------- 2 1.0 2.0 78 86
- 0.078328 1 2 cbr 1000 ------- 2 1.0 2.0 76 84
r 0.0788 1 2 cbr 1000 ------- 2 1.0 2.0 68 76
+ 0.079 1 2 cbr 1000 ------- 2 1.0 2.0 79 87
- 0.079128 1 2 cbr 1000 ------- 2 1.0 2.0 77 85
r 0.0798 1 2 cbr 1000 ------- 2 1.0 2.0 69 77
- 0.079928 1 2 cbr 1000 ------- 2 1.0 2.0 78 86
+ 0.08 1 2 cbr 1000 ------- 2 1.0 2.0 80 88
- 0.080728 1 2 cbr 1000 ------- 2 1.0 2.0 79 87
r 0.0808 1 2 cbr 1000 ------- 2 1.0 2.0 70 78
+ 0.081 1 2 cbr 1000 ------- 2 1.0 2.0 81 89
- 0.081528 1 2 cbr 1000 ------- 2 1.0 2.0 80 88
r 0.0818 1 2 cbr 1000 ------- 2 1.0 2.0 71 79
+ 0.082 1 2 cbr 1000 ------- 2 1.0 2.0 82 90
- 0.082328 1 2 cbr 1000 ------- 2 1.0 2.0 81 89
r 0.082632 1 2 tcp 1040 ------- 2 0.0 3.0 1 65
+ 0.082632 2 3 tcp 1040 ------- 2 0.0 3.0 1 65
- 0.082632 2 3 tcp 1040 ------- 2 0.0 3.0 1 65
+ 0.083 1 2 cbr 1000 ------- 2 1.0 2.0 83 91
- 0.083128 1 2 cbr 1000 ------- 2 1.0 2.0 82 90
r 0.083464 1 2 tcp 1040 ------- 3 4.0 5.0 1 67
+ 0.083464 2 5 tcp 1040 ------- 3 4.0 5.0 1 67
- 0.083464 2 5 tcp 1040 ------- 3 4.0 5.0 1 67
- 0.083928 1 2 cbr 1000 ------- 2 1.0 2.0 83 91
+ 0.084 1 2 cbr 1000 ------- 2 1.0 2.0 84 92
r 0.084264 1 2 cbr 1000 ------- 2 1.0 2.0 72 80
- 0.084728 1 2 cbr 1000 ------- 2 1.0 2.0 84 92
+ 0.085 1 2 cbr 1000 ------- 2 1.0 2.0 85 93
r 0.085096 1 2 tcp 1040 ------- 2 0.0 3.0 2 66
+ 0.085096 2 3 tcp 1040 ------- 2 0.0 3.0 2 66
- 0.085096 2 3 tcp 1040 ------- 2 0.0 3.0 2 66
- 0.085528 1 2 cbr 1000 ------- 2 1.0 2.0 85 93
r 0.085928 1 2 tcp 1040 ------- 3 4.0 5.0 2 68
+ 0.085928 2 5 tcp 1040 ------- 3 4.0 5.0 2 68
- 0.085928 2 5 tcp 1040 ------- 3 4.0 5.0 2 68
+ 0.086 1 2 cbr 1000 ------- 2 1.0 2.0 86 94
- 0.086328 1 2 cbr 1000 ------- 2 1.0 2.0 86 94
r 0.086728 1 2 cbr 1000 ------- 2 1.0 2.0 73 81
+ 0.087 1 2 cbr 1000 ------- 2 1.0 2.0 87 95
- 0.087128 1 2 cbr 1000 ------- 2 1.0 2.0 87 95
r 0.087528 1 2 cbr 1000 ------- 2 1.0 2.0 74 82
+ 0.088 1 2 cbr 1000 ------- 2 1.0 2.0 88 96
- 0.088 1 2 cbr 1000 ------- 2 1.0 2.0 88 96
r 0.088328 1 2 cbr 1000 ------- 2 1.0 2.0 75 83
+ 0.089 1 2 cbr 1000 ------- 2 1.0 2.0 89 97
- 0.089 1 2 cbr 1000 ------- 2 1.0 2.0 89 97
r 0.089128 1 2 cbr 1000 ------- 2 1.0 2.0 76 84
r 0.089928 1 2 cbr 1000 ------- 2 1.0 2.0 77 85
+ 0.09 1 2 cbr 1000 ------- 2 1.0 2.0 90 98
- 0.09 1 2 cbr 1000 ------- 2 1.0 2.0 90 98
r 0.090728 1 2 cbr 1000 ------- 2 1.0 2.0 78 86
+ 0.091 1 2 cbr 1000 ------- 2 1.0 2.0 91 99
- 0.091 1 2 cbr 1000 ------- 2 1.0 2.0 91 99
r 0.091528 1 2 cbr 1000 ------- 2 1.0 2.0 79 87
+ 0.092 1 2 cbr 1000 ------- 2 1.0 2.0 92 100
- 0.092 1 2 cbr 1000 ------- 2 1.0 2.0 92 100
r 0.092328 1 2 cbr 1000 ------- 2 1.0 2.0 80 88
+ 0.093 1 2 cbr 1000 ------- 2 1.0 2.0 93 101
- 0.093 1 2 cbr 1000 ------- 2 1.0 2.0 93 101
r 0.093128 1 2 cbr 1000 ------- 2 1.0 2.0 81 89
r 0.093464 2 3 tcp 1040 ------- 2 0.0 3.0 1 65
+ 0.093464 3 2 ack 40 ------- 2 3.0 0.0 1 102
- 0.093464 3 2 ack 40 ------- 2 3.0 0.0 1 102
r 0.093928 1 2 cbr 1000 ------- 2 1.0 2.0 82 90
+ 0.094 1 2 cbr 1000 ------- 2 1.0 2.0 94 103
- 0.094 1 2 cbr 1000 ------- 2 1.0 2.0 94 103
r 0.094296 2 5 tcp 1040 ------- 3 4.0 5.0 1 67
+ 0.094296 5 2 ack 40 ------- 3 5.0 4.0 1 104
- 0.094296 5 2 ack 40 ------- 3 5.0 4.0 1 104
r 0.094728 1 2 cbr 1000 ------- 2 1.0 2.0 83 91
+ 0.095 1 2 cbr 1000 ------- 2 1.0 2.0 95 105
- 0.095 1 2 cbr 1000 ------- 2 1.0 2.0 95 105
r 0.095528 1 2 cbr 1000 ------- 2 1.0 2.0 84 92
r 0.095928 2 3 tcp 1040 ------- 2 0.0 3.0 2 66
+ 0.095928 3 2 ack 40 ------- 2 3.0 0.0 2 106
- 0.095928 3 2 ack 40 ------- 2 3.0 0.0 2 106
+ 0.096 1 2 cbr 1000 ------- 2 1.0 2.0 96 107
- 0.096 1 2 cbr 1000 ------- 2 1.0 2.0 96 107
r 0.096328 1 2 cbr 1000 ------- 2 1.0 2.0 85 93
r 0.09676 2 5 tcp 1040 ------- 3 4.0 5.0 2 68
+ 0.09676 5 2 ack 40 ------- 3 5.0 4.0 2 108
- 0.09676 5 2 ack 40 ------- 3 5.0 4.0 2 108
+ 0.097 1 2 cbr 1000 ------- 2 1.0 2.0 97 109
- 0.097 1 2 cbr 1000 ------- 2 1.0 2.0 97 109
r 0.097128 1 2 cbr 1000 ------- 2 1.0 2.0 86 94
r 0.097928 1 2 cbr 1000 ------- 2 1.0 2.0 87 95
+ 0.098 1 2 cbr 1000 ------- 2 1.0 2.0 98 110
- 0.098 1 2 cbr 1000 ------- 2 1.0 2.0 98 110
r 0.0988 1 2 cbr 1000 ------- 2 1.0 2.0 88 96
+ 0.099 1 2 cbr 1000 ------- 2 1.0 2.0 99 111
- 0.099 1 2 cbr 1000 ------- 2 1.0 2.0 99 111
r 0.0998 1 2 cbr 1000 ------- 2 1.0 2.0 89 97
+ 0.1 1 2 cbr 1000 ------- 2 1.0 2.0 100 112
- 0.1 1 2 cbr 1000 ------- 2 1.0 2.0 100 112
r 0.1008 1 2 cbr 1000 ------- 2 1.0 2.0 90 98
+ 0.101 1 2 cbr 1000 ------- 2 1.0 2.0 101 113
- 0.101 1 2 cbr 1000 ------- 2 1.0 2.0 101 113
r 0.1018 1 2 cbr 1000 ------- 2 1.0 2.0 91 99
+ 0.102 1 2 cbr 1000 ------- 2 1.0 2.0 102 114
- 0.102 1 2 cbr 1000 ------- 2 1.0 2.0 102 114
r 0.1028 1 2 cbr 1000 ------- 2 1.0 2.0 92 100
+ 0.103 1 2 cbr 1000 ------- 2 1.0 2.0 103 115
- 0.103 1 2 cbr 1000 ------- 2 1.0 2.0 103 115
r 0.103496 3 2 ack 40 ------- 2 3.0 0.0 1 102
+ 0.103496 2 1 ack 40 ------- 2 3.0 0.0 1 102
- 0.103496 2 1 ack 40 ------- 2 3.0 0.0 1 102
r 0.1038 1 2 cbr 1000 ------- 2 1.0 2.0 93 101
+ 0.104 1 2 cbr 1000 ------- 2 1.0 2.0 104 116
- 0.104 1 2 cbr 1000 ------- 2 1.0 2.0 104 116
r 0.104328 5 2 ack 40 ------- 3 5.0 4.0 1 104
+ 0.104328 2 1 ack 40 ------- 3 5.0 4.0 1 104
- 0.104328 2 1 ack 40 ------- 3 5.0 4.0 1 104
r 0.1048 1 2 cbr 1000 ------- 2 1.0 2.0 94 103
+ 0.105 1 2 cbr 1000 ------- 2 1.0 2.0 105 117
- 0.105 1 2 cbr 1000 ------- 2 1.0 2.0 105 117
r 0.1058 1 2 cbr 1000 ------- 2 1.0 2.0 95 105
r 0.10596 3 2 ack 40 ------- 2 3.0 0.0 2 106
+ 0.10596 2 1 ack 40 ------- 2 3.0 0.0 2 106
- 0.10596 2 1 ack 40 ------- 2 3.0 0.0 2 106
+ 0.106 1 2 cbr 1000 ------- 2 1.0 2.0 106 118
- 0.106 1 2 cbr 1000 ------- 2 1.0 2.0 106 118
r 0.106792 5 2 ack 40 ------- 3 5.0 4.0 2 108
+ 0.106792 2 1 ack 40 ------- 3 5.0 4.0 2 108
- 0.106792 2 1 ack 40 ------- 3 5.0 4.0 2 108
r 0.1068 1 2 cbr 1000 ------- 2 1.0 2.0 96 107
+ 0.107 1 2 cbr 1000 ------- 2 1.0 2.0 107 119
- 0.107 1 2 cbr 1000 ------- 2 1.0 2.0 107 119
r 0.1078 1 2 cbr 1000 ------- 2 1.0 2.0 97 109
+ 0.108 1 2 cbr 1000 ------- 2 1.0 2.0 108 120
- 0.108 1 2 cbr 1000 ------- 2 1.0 2.0 108 120
r 0.1088 1 2 cbr 1000 ------- 2 1.0 2.0 98 110
+ 0.109 1 2 cbr 1000 ------- 2 1.0 2.0 109 121
- 0.109 1 2 cbr 1000 ------- 2 1.0 2.0 109 121
r 0.1098 1 2 cbr 1000 ------- 2 1.0 2.0 99 111
+ 0.11 1 2 cbr 1000 ------- 2 1.0 2.0 110 122
- 0.11 1 2 cbr 1000 ------- 2 1.0 2.0 110 122
r 0.1108 1 2 cbr 1000 ------- 2 1.0 2.0 100 112
+ 0.111 1 2 cbr 1000 ------- 2 1.0 2.0 111 123
- 0.111 1 2 cbr 1000 ------- 2 1.0 2.0 111 123
r 0.1118 1 2 cbr 1000 ------- 2 1.0 2.0 101 113
+ 0.112 1 2 cbr 1000 ------- 2 1.0 2.0 112 124
- 0.112 1 2 cbr 1000 ------- 2 1.0 2.0 112 124
r 0.1128 1 2 cbr 1000 ------- 2 1.0 2.0 102 114
+ 0.113 1 2 cbr 1000 ------- 2 1.0 2.0 113 125
- 0.113 1 2 cbr 1000 ------- 2 1.0 2.0 113 125
r 0.113528 2 1 ack 40 ------- 2 3.0 0.0 1 102
+ 0.113528 1 0 ack 40 ------- 2 3.0 0.0 1 102
- 0.113528 1 0 ack 40 ------- 2 3.0 0.0 1 102
r 0.1138 1 2 cbr 1000 ------- 2 1.0 2.0 103 115
+ 0.114 1 2 cbr 1000 ------- 2 1.0 2.0 114 126
- 0.114 1 2 cbr 1000 ------- 2 1.0 2.0 114 126
r 0.11436 2 1 ack 40 ------- 3 5.0 4.0 1 104
+ 0.11436 1 4 ack 40 ------- 3 5.0 4.0 1 104
- 0.11436 1 4 ack 40 ------- 3 5.0 4.0 1 104
r 0.1148 1 2 cbr 1000 ------- 2 1.0 2.0 104 116
+ 0.115 1 2 cbr 1000 ------- 2 1.0 2.0 115 127
- 0.115 1 2 cbr 1000 ------- 2 1.0 2.0 115 127
r 0.1158 1 2 cbr 1000 ------- 2 1.0 2.0 105 117
r 0.115992 2 1 ack 40 ------- 2 3.0 0.0 2 106
+ 0.115992 1 0 ack 40 ------- 2 3.0 0.0 2 106
- 0.115992 1 0 ack 40 ------- 2 3.0 0.0 2 106
+ 0.116 1 2 cbr 1000 ------- 2 1.0 2.0 116 128
- 0.116 1 2 cbr 1000 ------- 2 1.0 2.0 116 128
r 0.1168 1 2 cbr 1000 ------- 2 1.0 2.0 106 118
r 0.116824 2 1 ack 40 ------- 3 5.0 4.0 2 108
+ 0.116824 1 4 ack 40 ------- 3 5.0 4.0 2 108
- 0.116824 1 4 ack 40 ------- 3 5.0 4.0 2 108
+ 0.117 1 2 cbr 1000 ------- 2 1.0 2.0 117 129
- 0.117 1 2 cbr 1000 ------- 2 1.0 2.0 117 129
r 0.1178 1 2 cbr 1000 ------- 2 1.0 2.0 107 119
+ 0.118 1 2 cbr 1000 ------- 2 1.0 2.0 118 130
- 0.118 1 2 cbr 1000 ------- 2 1.0 2.0 118 130
r 0.1188 1 2 cbr 1000 ------- 2 1.0 2.0 108 120
+ 0.119 1 2 cbr 1000 ------- 2 1.0 2.0 119 131
- 0.119 1 2 cbr 1000 ------- 2 1.0 2.0 119 131
r 0.1198 1 2 cbr 1000 ------- 2 1.0 2.0 109 121
+ 0.12 1 2 cbr 1000 ------- 2 1.0 2.0 120 132
- 0.12 1 2 cbr 1000 ------- 2 1.0 2.0 120 132
r 0.1208 1 2 cbr 1000 ------- 2 1.0 2.0 110 122
+ 0.121 1 2 cbr 1000 ------- 2 1.0 2.0 121 133
- 0.121 1 2 cbr 1000 ------- 2 1.0 2.0 121 133
r 0.1218 1 2 cbr 1000 ------- 2 1.0 2.0 111 123
+ 0.122 1 2 cbr 1000 ------- 2 1.0 2.0 122 134
- 0.122 1 2 cbr 1000 ------- 2 1.0 2.0 122 134
r 0.1228 1 2 cbr 1000 ------- 2 1.0 2.0 112 124
+ 0.123 1 2 cbr 1000 ------- 2 1.0 2.0 123 135
- 0.123 1 2 cbr 1000 ------- 2 1.0 2.0 123 135
r 0.12356 1 0 ack 40 ------- 2 3.0 0.0 1 102
+ 0.12356 0 1 tcp 1040 ------- 2 0.0 3.0 3 136
- 0.12356 0 1 tcp 1040 ------- 2 0.0 3.0 3 136
+ 0.12356 0 1 tcp 1040 ------- 2 0.0 3.0 4 137
r 0.1238 1 2 cbr 1000 ------- 2 1.0 2.0 113 125
+ 0.124 1 2 cbr 1000 ------- 2 1.0 2.0 124 138
- 0.124 1 2 cbr 1000 ------- 2 1.0 2.0 124 138
r 0.124392 1 4 ack 40 ------- 3 5.0 4.0 1 104
+ 0.124392 4 1 tcp 1040 ------- 3 4.0 5.0 3 139
- 0.124392 4 1 tcp 1040 ------- 3 4.0 5.0 3 139
+ 0.124392 4 1 tcp 1040 ------- 3 4.0 5.0 4 140
- 0.124392 0 1 tcp 1040 ------- 2 0.0 3.0 4 137
r 0.1248 1 2 cbr 1000 ------- 2 1.0 2.0 114 126
+ 0.125 1 2 cbr 1000 ------- 2 1.0 2.0 125 141
- 0.125 1 2 cbr 1000 ------- 2 1.0 2.0 125 141
- 0.125224 4 1 tcp 1040 ------- 3 4.0 5.0 4 140
r 0.1258 1 2 cbr 1000 ------- 2 1.0 2.0 115 127
+ 0.126 1 2 cbr 1000 ------- 2 1.0 2.0 126 142
- 0.126 1 2 cbr 1000 ------- 2 1.0 2.0 126 142
r 0.126024 1 0 ack 40 ------- 2 3.0 0.0 2 106
+ 0.126024 0 1 tcp 1040 ------- 2 0.0 3.0 5 143
- 0.126024 0 1 tcp 1040 ------- 2 0.0 3.0 5 143
+ 0.126024 0 1 tcp 1040 ------- 2 0.0 3.0 6 144
r 0.1268 1 2 cbr 1000 ------- 2 1.0 2.0 116 128
r 0.126856 1 4 ack 40 ------- 3 5.0 4.0 2 108
+ 0.126856 4 1 tcp 1040 ------- 3 4.0 5.0 5 145
- 0.126856 4 1 tcp 1040 ------- 3 4.0 5.0 5 145
+ 0.126856 4 1 tcp 1040 ------- 3 4.0 5.0 6 146
- 0.126856 0 1 tcp 1040 ------- 2 0.0 3.0 6 144
+ 0.127 1 2 cbr 1000 ------- 2 1.0 2.0 127 147
- 0.127 1 2 cbr 1000 ------- 2 1.0 2.0 127 147
- 0.127688 4 1 tcp 1040 ------- 3 4.0 5.0 6 146
r 0.1278 1 2 cbr 1000 ------- 2 1.0 2.0 117 129
+ 0.128 1 2 cbr 1000 ------- 2 1.0 2.0 128 148
- 0.128 1 2 cbr 1000 ------- 2 1.0 2.0 128 148
r 0.1288 1 2 cbr 1000 ------- 2 1.0 2.0 118 130
+ 0.129 1 2 cbr 1000 ------- 2 1.0 2.0 129 149
- 0.129 1 2 cbr 1000 ------- 2 1.0 2.0 129 149
r 0.1298 1 2 cbr 1000 ------- 2 1.0 2.0 119 131
+ 0.13 1 2 cbr 1000 ------- 2 1.0 2.0 130 150
- 0.13 1 2 cbr 1000 ------- 2 1.0 2.0 130 150
r 0.1308 1 2 cbr 1000 ------- 2 1.0 2.0 120 132
+ 0.131 1 2 cbr 1000 ------- 2 1.0 2.0 131 151
- 0.131 1 2 cbr 1000 ------- 2 1.0 2.0 131 151
r 0.1318 1 2 cbr 1000 ------- 2 1.0 2.0 121 133
+ 0.132 1 2 cbr 1000 ------- 2 1.0 2.0 132 152
- 0.132 1 2 cbr 1000 ------- 2 1.0 2.0 132 152
r 0.1328 1 2 cbr 1000 ------- 2 1.0 2.0 122 134
+ 0.133 1 2 cbr 1000 ------- 2 1.0 2.0 133 153
- 0.133 1 2 cbr 1000 ------- 2 1.0 2.0 133 153
r 0.1338 1 2 cbr 1000 ------- 2 1.0 2.0 123 135
+ 0.134 1 2 cbr 1000 ------- 2 1.0 2.0 134 154
- 0.134 1 2 cbr 1000 ------- 2 1.0 2.0 134 154
r 0.134392 0 1 tcp 1040 ------- 2 0.0 3.0 3 136
+ 0.134392 1 2 tcp 1040 ------- 2 0.0 3.0 3 136
r 0.1348 1 2 cbr 1000 ------- 2 1.0 2.0 124 138
- 0.1348 1 2 tcp 1040 ------- 2 0.0 3.0 3 136
+ 0.135 1 2 cbr 1000 ------- 2 1.0 2.0 135 155
r 0.135224 4 1 tcp 1040 ------- 3 4.0 5.0 3 139
+ 0.135224 1 2 tcp 1040 ------- 3 4.0 5.0 3 139
r 0.135224 0 1 tcp 1040 ------- 2 0.0 3.0 4 137
+ 0.135224 1 2 tcp 1040 ------- 2 0.0 3.0 4 137
- 0.135632 1 2 cbr 1000 ------- 2 1.0 2.0 135 155
r 0.1358 1 2 cbr 1000 ------- 2 1.0 2.0 125 141
+ 0.136 1 2 cbr 1000 ------- 2 1.0 2.0 136 156
r 0.136056 4 1 tcp 1040 ------- 3 4.0 5.0 4 140
+ 0.136056 1 2 tcp 1040 ------- 3 4.0 5.0 4 140
- 0.136432 1 2 tcp 1040 ------- 3 4.0 5.0 3 139
r 0.1368 1 2 cbr 1000 ------- 2 1.0 2.0 126 142
r 0.136856 0 1 tcp 1040 ------- 2 0.0 3.0 5 143
+ 0.136856 1 2 tcp 1040 ------- 2 0.0 3.0 5 143
+ 0.137 1 2 cbr 1000 ------- 2 1.0 2.0 137 157
- 0.137264 1 2 tcp 1040 ------- 2 0.0 3.0 4 137
r 0.137688 4 1 tcp 1040 ------- 3 4.0 5.0 5 145
+ 0.137688 1 2 tcp 1040 ------- 3 4.0 5.0 5 145
r 0.137688 0 1 tcp 1040 ------- 2 0.0 3.0 6 144
+ 0.137688 1 2 tcp 1040 ------- 2 0.0 3.0 6 144
r 0.1378 1 2 cbr 1000 ------- 2 1.0 2.0 127 147
+ 0.138 1 2 cbr 1000 ------- 2 1.0 2.0 138 158
- 0.138096 1 2 cbr 1000 ------- 2 1.0 2.0 136 156
r 0.13852 4 1 tcp 1040 ------- 3 4.0 5.0 6 146
+ 0.13852 1 2 tcp 1040 ------- 3 4.0 5.0 6 146
r 0.1388 1 2 cbr 1000 ------- 2 1.0 2.0 128 148
- 0.138896 1 2 tcp 1040 ------- 3 4.0 5.0 4 140
+ 0.139 1 2 cbr 1000 ------- 2 1.0 2.0 139 159
- 0.139728 1 2 tcp 1040 ------- 2 0.0 3.0 5 143
r 0.1398 1 2 cbr 1000 ------- 2 1.0 2.0 129 149
+ 0.14 1 2 cbr 1000 ------- 2 1.0 2.0 140 160
- 0.14056 1 2 cbr 1000 ------- 2 1.0 2.0 137 157
r 0.1408 1 2 cbr 1000 ------- 2 1.0 2.0 130 150
+ 0.141 1 2 cbr 1000 ------- 2 1.0 2.0 141 161
- 0.14136 1 2 tcp 1040 ------- 3 4.0 5.0 5 145
r 0.1418 1 2 cbr 1000 ------- 2 1.0 2.0 131 151
+ 0.142 1 2 cbr 1000 ------- 2 1.0 2.0 142 162
- 0.142192 1 2 tcp 1040 ------- 2 0.0 3.0 6 144
r 0.1428 1 2 cbr 1000 ------- 2 1.0 2.0 132 152
+ 0.143 1 2 cbr 1000 ------- 2 1.0 2.0 143 163
- 0.143024 1 2 cbr 1000 ------- 2 1.0 2.0 138 158
r 0.1438 1 2 cbr 1000 ------- 2 1.0 2.0 133 153
- 0.143824 1 2 tcp 1040 ------- 3 4.0 5.0 6 146
+ 0.144 1 2 cbr 1000 ------- 2 1.0 2.0 144 164
- 0.144656 1 2 cbr 1000 ------- 2 1.0 2.0 139 159
r 0.1448 1 2 cbr 1000 ------- 2 1.0 2.0 134 154
+ 0.145 1 2 cbr 1000 ------- 2 1.0 2.0 145 165
- 0.145456 1 2 cbr 1000 ------- 2 1.0 2.0 140 160
r 0.145632 1 2 tcp 1040 ------- 2 0.0 3.0 3 136
+ 0.145632 2 3 tcp 1040 ------- 2 0.0 3.0 3 136
- 0.145632 2 3 tcp 1040 ------- 2 0.0 3.0 3 136
+ 0.146 1 2 cbr 1000 ------- 2 1.0 2.0 146 166
- 0.146256 1 2 cbr 1000 ------- 2 1.0 2.0 141 161
r 0.146432 1 2 cbr 1000 ------- 2 1.0 2.0 135 155
+ 0.147 1 2 cbr 1000 ------- 2 1.0 2.0 147 167
- 0.147056 1 2 cbr 1000 ------- 2 1.0 2.0 142 162
r 0.147264 1 2 tcp 1040 ------- 3 4.0 5.0 3 139
+ 0.147264 2 5 tcp 1040 ------- 3 4.0 5.0 3 139
- 0.147264 2 5 tcp 1040 ------- 3 4.0 5.0 3 139
- 0.147856 1 2 cbr 1000 ------- 2 1.0 2.0 143 163
+ 0.148 1 2 cbr 1000 ------- 2 1.0 2.0 148 168
r 0.148096 1 2 tcp 1040 ------- 2 0.0 3.0 4 137
+ 0.148096 2 3 tcp 1040 ------- 2 0.0 3.0 4 137
- 0.148096 2 3 tcp 1040 ------- 2 0.0 3.0 4 137
- 0.148656 1 2 cbr 1000 ------- 2 1.0 2.0 144 164
r 0.148896 1 2 cbr 1000 ------- 2 1.0 2.0 136 156
+ 0.149 1 2 cbr 1000 ------- 2 1.0 2.0 149 169
- 0.149456 1 2 cbr 1000 ------- 2 1.0 2.0 145 165
r 0.149728 1 2 tcp 1040 ------- 3 4.0 5.0 4 140
+ 0.149728 2 5 tcp 1040 ------- 3 4.0 5.0 4 140
- 0.149728 2 5 tcp 1040 ------- 3 4.0 5.0 4 140
+ 0.15 1 2 cbr 1000 ------- 2 1.0 2.0 150 170
- 0.150256 1 2 cbr 1000 ------- 2 1.0 2.0 146 166
r 0.15056 1 2 tcp 1040 ------- 2 0.0 3.0 5 143
+ 0.15056 2 3 tcp 1040 ------- 2 0.0 3.0 5 143
- 0.15056 2 3 tcp 1040 ------- 2 0.0 3.0 5 143
+ 0.151 1 2 cbr 1000 ------- 2 1.0 2.0 151 171
- 0.151056 1 2 cbr 1000 ------- 2 1.0 2.0 147 167
r 0.15136 1 2 cbr 1000 ------- 2 1.0 2.0 137 157
- 0.151856 1 2 cbr 1000 ------- 2 1.0 2.0 148 168
+ 0.152 1 2 cbr 1000 ------- 2 1.0 2.0 152 172
r 0.152192 1 2 tcp 1040 ------- 3 4.0 5.0 5 145
+ 0.152192 2 5 tcp 1040 ------- 3 4.0 5.0 5 145
- 0.152192 2 5 tcp 1040 ------- 3 4.0 5.0 5 145
- 0.152656 1 2 cbr 1000 ------- 2 1.0 2.0 149 169
+ 0.153 1 2 cbr 1000 ------- 2 1.0 2.0 153 173
r 0.153024 1 2 tcp 1040 ------- 2 0.0 3.0 6 144
+ 0.153024 2 3 tcp 1040 ------- 2 0.0 3.0 6 144
- 0.153024 2 3 tcp 1040 ------- 2 0.0 3.0 6 144
- 0.153456 1 2 cbr 1000 ------- 2 1.0 2.0 150 170
r 0.153824 1 2 cbr 1000 ------- 2 1.0 2.0 138 158
+ 0.154 1 2 cbr 1000 ------- 2 1.0 2.0 154 174
- 0.154256 1 2 cbr 1000 ------- 2 1.0 2.0 151 171
r 0.154656 1 2 tcp 1040 ------- 3 4.0 5.0 6 146
+ 0.154656 2 5 tcp 1040 ------- 3 4.0 5.0 6 146
- 0.154656 2 5 tcp 1040 ------- 3 4.0 5.0 6 146
+ 0.155 1 2 cbr 1000 ------- 2 1.0 2.0 155 175
- 0.155056 1 2 cbr 1000 ------- 2 1.0 2.0 152 172
r 0.155456 1 2 cbr 1000 ------- 2 1.0 2.0 139 159
- 0.155856 1 2 cbr 1000 ------- 2 1.0 2.0 153 173
+ 0.156 1 2 cbr 1000 ------- 2 1.0 2.0 156 176
r 0.156256 1 2 cbr 1000 ------- 2 1.0 2.0 140 160
r 0.156464 2 3 tcp 1040 ------- 2 0.0 3.0 3 136
+ 0.156464 3 2 ack 40 ------- 2 3.0 0.0 3 177
- 0.156464 3 2 ack 40 ------- 2 3.0 0.0 3 177
- 0.156656 1 2 cbr 1000 ------- 2 1.0 2.0 154 174
+ 0.157 1 2 cbr 1000 ------- 2 1.0 2.0 157 178
r 0.157056 1 2 cbr 1000 ------- 2 1.0 2.0 141 161
- 0.157456 1 2 cbr 1000 ------- 2 1.0 2.0 155 175
r 0.157856 1 2 cbr 1000 ------- 2 1.0 2.0 142 162
+ 0.158 1 2 cbr 1000 ------- 2 1.0 2.0 158 179
r 0.158096 2 5 tcp 1040 ------- 3 4.0 5.0 3 139
+ 0.158096 5 2 ack 40 ------- 3 5.0 4.0 3 180
- 0.158096 5 2 ack 40 ------- 3 5.0 4.0 3 180
- 0.158256 1 2 cbr 1000 ------- 2 1.0 2.0 156 176
r 0.158656 1 2 cbr 1000 ------- 2 1.0 2.0 143 163
r 0.158928 2 3 tcp 1040 ------- 2 0.0 3.0 4 137
+ 0.158928 3 2 ack 40 ------- 2 3.0 0.0 4 181
- 0.158928 3 2 ack 40 ------- 2 3.0 0.0 4 181
+ 0.159 1 2 cbr 1000 ------- 2 1.0 2.0 159 182
- 0.159056 1 2 cbr 1000 ------- 2 1.0 2.0 157 178
r 0.159456 1 2 cbr 1000 ------- 2 1.0 2.0 144 164
- 0.159856 1 2 cbr 1000 ------- 2 1.0 2.0 158 179
+ 0.16 1 2 cbr 1000 ------- 2 1.0 2.0 160 183
r 0.160256 1 2 cbr 1000 ------- 2 1.0 2.0 145 165
r 0.16056 2 5 tcp 1040 ------- 3 4.0 5.0 4 140