+ 0 1 2 cbr 1000 ------- 2 1.0 2.0 0 0
- 0 1 2 cbr 1000 ------- 2 1.0 2.0 0 0
+ 0 0 1 tcp 40 ------- 2 0.0 3.0 0 1
- 0 0 1 tcp 40 ------- 2 0.0 3.0 0 1
+ 0 4 1 tcp 40 ------- 3 4.0 5.0 0 2
- 0 4 1 tcp 40 ------- 3 4.0 5.0 0 2
+ 0.0008 1 2 cbr 1000 ------- 2 1.0 2.0 1 3
- 0.0008 1 2 cbr 1000 ------- 2 1.0 2.0 1 3
+ 0.0016 1 2 cbr 1000 ------- 2 1.0 2.0 2 4
- 0.0016 1 2 cbr 1000 ------- 2 1.0 2.0 2 4
+ 0.0024 1 2 cbr 1000 ------- 2 1.0 2.0 3 5
- 0.0024 1 2 cbr 1000 ------- 2 1.0 2.0 3 5
+ 0.0032 1 2 cbr 1000 ------- 2 1.0 2.0 4 6
- 0.0032 1 2 cbr 1000 ------- 2 1.0 2.0 4 6
+ 0.004 1 2 cbr 1000 ------- 2 1.0 2.0 5 7
- 0.004 1 2 cbr 1000 ------- 2 1.0 2.0 5 7
+ 0.0048 1 2 cbr 1000 ------- 2 1.0 2.0 6 8
- 0.0048 1 2 cbr 1000 ------- 2 1.0 2.0 6 8
+ 0.0056 1 2 cbr 1000 ------- 2 1.0 2.0 7 9
- 0.0056 1 2 cbr 1000 ------- 2 1.0 2.0 7 9
+ 0.0064 1 2 cbr 1000 ------- 2 1.0 2.0 8 10
- 0.0064 1 2 cbr 1000 ------- 2 1.0 2.0 8 10
+ 0.0072 1 2 cbr 1000 ------- 2 1.0 2.0 9 11
- 0.0072 1 2 cbr 1000 ------- 2 1.0 2.0 9 11
+ 0.008 1 2 cbr 1000 ------- 2 1.0 2.0 10 12
- 0.008 1 2 cbr 1000 ------- 2 1.0 2.0 10 12
+ 0.0088 1 2 cbr 1000 ------- 2 1.0 2.0 11 13
- 0.0088 1 2 cbr 1000 ------- 2 1.0 2.0 11 13
+ 0.0096 1 2 cbr 1000 ------- 2 1.0 2.0 12 14
- 0.0096 1 2 cbr 1000 ------- 2 1.0 2.0 12 14
r 0.010032 0 1 tcp 40 ------- 2 0.0 3.0 0 1
+ 0.010032 1 2 tcp 40 ------- 2 0.0 3.0 0 1
r 0.010032 4 1 tcp 40 ------- 3 4.0 5.0 0 2
+ 0.010032 1 2 tcp 40 ------- 3 4.0 5.0 0 2
- 0.0104 1 2 tcp 40 ------- 2 0.0 3.0 0 1
+ 0.0104 1 2 cbr 1000 ------- 2 1.0 2.0 13 15
- 0.010432 1 2 tcp 40 ------- 3 4.0 5.0 0 2
- 0.010464 1 2 cbr 1000 ------- 2 1.0 2.0 13 15
r 0.0108 1 2 cbr 1000 ------- 2 1.0 2.0 0 0
+ 0.0112 1 2 cbr 1000 ------- 2 1.0 2.0 14 16
- 0.011264 1 2 cbr 1000 ------- 2 1.0 2.0 14 16
r 0.0116 1 2 cbr 1000 ------- 2 1.0 2.0 1 3
+ 0.012 1 2 cbr 1000 ------- 2 1.0 2.0 15 17
- 0.012064 1 2 cbr 1000 ------- 2 1.0 2.0 15 17
r 0.0124 1 2 cbr 1000 ------- 2 1.0 2.0 2 4
+ 0.0128 1 2 cbr 1000 ------- 2 1.0 2.0 16 18
- 0.012864 1 2 cbr 1000 ------- 2 1.0 2.0 16 18
r 0.0132 1 2 cbr 1000 ------- 2 1.0 2.0 3 5
+ 0.0136 1 2 cbr 1000 ------- 2 1.0 2.0 17 19
- 0.013664 1 2 cbr 1000 ------- 2 1.0 2.0 17 19
r 0.014 1 2 cbr 1000 ------- 2 1.0 2.0 4 6
+ 0.0144 1 2 cbr 1000 ------- 2 1.0 2.0 18 20
- 0.014464 1 2 cbr 1000 ------- 2 1.0 2.0 18 20
r 0.0148 1 2 cbr 1000 ------- 2 1.0 2.0 5 7
+ 0.0152 1 2 cbr 1000 ------- 2 1.0 2.0 19 21
- 0.015264 1 2 cbr 1000 ------- 2 1.0 2.0 19 21
r 0.0156 1 2 cbr 1000 ------- 2 1.0 2.0 6 8
+ 0.016 1 2 cbr 1000 ------- 2 1.0 2.0 20 22
- 0.016064 1 2 cbr 1000 ------- 2 1.0 2.0 20 22
r 0.0164 1 2 cbr 1000 ------- 2 1.0 2.0 7 9
+ 0.0168 1 2 cbr 1000 ------- 2 1.0 2.0 21 23
- 0.016864 1 2 cbr 1000 ------- 2 1.0 2.0 21 23
r 0.0172 1 2 cbr 1000 ------- 2 1.0 2.0 8 10
+ 0.0176 1 2 cbr 1000 ------- 2 1.0 2.0 22 24
- 0.017664 1 2 cbr 1000 ------- 2 1.0 2.0 22 24
r 0.018 1 2 cbr 1000 ------- 2 1.0 2.0 9 11
+ 0.0184 1 2 cbr 1000 ------- 2 1.0 2.0 23 25
- 0.018464 1 2 cbr 1000 ------- 2 1.0 2.0 23 25
r 0.0188 1 2 cbr 1000 ------- 2 1.0 2.0 10 12
+ 0.0192 1 2 cbr 1000 ------- 2 1.0 2.0 24 26
- 0.019264 1 2 cbr 1000 ------- 2 1.0 2.0 24 26
r 0.0196 1 2 cbr 1000 ------- 2 1.0 2.0 11 13
+ 0.02 1 2 cbr 1000 ------- 2 1.0 2.0 25 27
- 0.020064 1 2 cbr 1000 ------- 2 1.0 2.0 25 27
r 0.0204 1 2 cbr 1000 ------- 2 1.0 2.0 12 14
r 0.020432 1 2 tcp 40 ------- 2 0.0 3.0 0 1
+ 0.020432 2 3 tcp 40 ------- 2 0.0 3.0 0 1
- 0.020432 2 3 tcp 40 ------- 2 0.0 3.0 0 1
r 0.020464 1 2 tcp 40 ------- 3 4.0 5.0 0 2
+ 0.020464 2 5 tcp 40 ------- 3 4.0 5.0 0 2
- 0.020464 2 5 tcp 40 ------- 3 4.0 5.0 0 2
+ 0.0208 1 2 cbr 1000 ------- 2 1.0 2.0 26 28
- 0.020864 1 2 cbr 1000 ------- 2 1.0 2.0 26 28
r 0.021264 1 2 cbr 1000 ------- 2 1.0 2.0 13 15
+ 0.0216 1 2 cbr 1000 ------- 2 1.0 2.0 27 29
- 0.021664 1 2 cbr 1000 ------- 2 1.0 2.0 27 29
r 0.022064 1 2 cbr 1000 ------- 2 1.0 2.0 14 16
+ 0.0224 1 2 cbr 1000 ------- 2 1.0 2.0 28 30
- 0.022464 1 2 cbr 1000 ------- 2 1.0 2.0 28 30
r 0.022864 1 2 cbr 1000 ------- 2 1.0 2.0 15 17
+ 0.0232 1 2 cbr 1000 ------- 2 1.0 2.0 29 31
- 0.023264 1 2 cbr 1000 ------- 2 1.0 2.0 29 31
r 0.023664 1 2 cbr 1000 ------- 2 1.0 2.0 16 18
+ 0.024 1 2 cbr 1000 ------- 2 1.0 2.0 30 32
- 0.024064 1 2 cbr 1000 ------- 2 1.0 2.0 30 32
r 0.024464 1 2 cbr 1000 ------- 2 1.0 2.0 17 19
+ 0.0248 1 2 cbr 1000 ------- 2 1.0 2.0 31 33
- 0.024864 1 2 cbr 1000 ------- 2 1.0 2.0 31 33
r 0.025264 1 2 cbr 1000 ------- 2 1.0 2.0 18 20
+ 0.0256 1 2 cbr 1000 ------- 2 1.0 2.0 32 34
- 0.025664 1 2 cbr 1000 ------- 2 1.0 2.0 32 34
r 0.026064 1 2 cbr 1000 ------- 2 1.0 2.0 19 21
+ 0.0264 1 2 cbr 1000 ------- 2 1.0 2.0 33 35
- 0.026464 1 2 cbr 1000 ------- 2 1.0 2.0 33 35
r 0.026864 1 2 cbr 1000 ------- 2 1.0 2.0 20 22
+ 0.0272 1 2 cbr 1000 ------- 2 1.0 2.0 34 36
- 0.027264 1 2 cbr 1000 ------- 2 1.0 2.0 34 36
r 0.027664 1 2 cbr 1000 ------- 2 1.0 2.0 21 23
+ 0.028 1 2 cbr 1000 ------- 2 1.0 2.0 35 37
- 0.028064 1 2 cbr 1000 ------- 2 1.0 2.0 35 37
r 0.028464 1 2 cbr 1000 ------- 2 1.0 2.0 22 24
+ 0.0288 1 2 cbr 1000 ------- 2 1.0 2.0 36 38
- 0.028864 1 2 cbr 1000 ------- 2 1.0 2.0 36 38
r 0.029264 1 2 cbr 1000 ------- 2 1.0 2.0 23 25
+ 0.0296 1 2 cbr 1000 ------- 2 1.0 2.0 37 39
- 0.029664 1 2 cbr 1000 ------- 2 1.0 2.0 37 39
r 0.030064 1 2 cbr 1000 ------- 2 1.0 2.0 24 26
+ 0.0304 1 2 cbr 1000 ------- 2 1.0 2.0 38 40
- 0.030464 1 2 cbr 1000 ------- 2 1.0 2.0 38 40
r 0.030464 2 3 tcp 40 ------- 2 0.0 3.0 0 1
+ 0.030464 3 2 ack 40 ------- 2 3.0 0.0 0 41
- 0.030464 3 2 ack 40 ------- 2 3.0 0.0 0 41
r 0.030496 2 5 tcp 40 ------- 3 4.0 5.0 0 2
+ 0.030496 5 2 ack 40 ------- 3 5.0 4.0 0 42
- 0.030496 5 2 ack 40 ------- 3 5.0 4.0 0 42
r 0.030864 1 2 cbr 1000 ------- 2 1.0 2.0 25 27
+ 0.0312 1 2 cbr 1000 ------- 2 1.0 2.0 39 43
- 0.031264 1 2 cbr 1000 ------- 2 1.0 2.0 39 43
r 0.031664 1 2 cbr 1000 ------- 2 1.0 2.0 26 28
+ 0.032 1 2 cbr 1000 ------- 2 1.0 2.0 40 44
- 0.032064 1 2 cbr 1000 ------- 2 1.0 2.0 40 44
r 0.032464 1 2 cbr 1000 ------- 2 1.0 2.0 27 29
+ 0.0328 1 2 cbr 1000 ------- 2 1.0 2.0 41 45
- 0.032864 1 2 cbr 1000 ------- 2 1.0 2.0 41 45
r 0.033264 1 2 cbr 1000 ------- 2 1.0 2.0 28 30
+ 0.0336 1 2 cbr 1000 ------- 2 1.0 2.0 42 46
- 0.033664 1 2 cbr 1000 ------- 2 1.0 2.0 42 46
r 0.034064 1 2 cbr 1000 ------- 2 1.0 2.0 29 31
+ 0.0344 1 2 cbr 1000 ------- 2 1.0 2.0 43 47
- 0.034464 1 2 cbr 1000 ------- 2 1.0 2.0 43 47
r 0.034864 1 2 cbr 1000 ------- 2 1.0 2.0 30 32
+ 0.0352 1 2 cbr 1000 ------- 2 1.0 2.0 44 48
- 0.035264 1 2 cbr 1000 ------- 2 1.0 2.0 44 48
r 0.035664 1 2 cbr 1000 ------- 2 1.0 2.0 31 33
+ 0.036 1 2 cbr 1000 ------- 2 1.0 2.0 45 49
- 0.036064 1 2 cbr 1000 ------- 2 1.0 2.0 45 49
r 0.036464 1 2 cbr 1000 ------- 2 1.0 2.0 32 34
+ 0.0368 1 2 cbr 1000 ------- 2 1.0 2.0 46 50
- 0.036864 1 2 cbr 1000 ------- 2 1.0 2.0 46 50
r 0.037264 1 2 cbr 1000 ------- 2 1.0 2.0 33 35
+ 0.0376 1 2 cbr 1000 ------- 2 1.0 2.0 47 51
- 0.037664 1 2 cbr 1000 ------- 2 1.0 2.0 47 51
r 0.038064 1 2 cbr 1000 ------- 2 1.0 2.0 34 36
+ 0.0384 1 2 cbr 1000 ------- 2 1.0 2.0 48 52
- 0.038464 1 2 cbr 1000 ------- 2 1.0 2.0 48 52
r 0.038864 1 2 cbr 1000 ------- 2 1.0 2.0 35 37
+ 0.0392 1 2 cbr 1000 ------- 2 1.0 2.0 49 53
- 0.039264 1 2 cbr 1000 ------- 2 1.0 2.0 49 53
r 0.039664 1 2 cbr 1000 ------- 2 1.0 2.0 36 38
+ 0.04 1 2 cbr 1000 ------- 2 1.0 2.0 50 54
- 0.040064 1 2 cbr 1000 ------- 2 1.0 2.0 50 54
r 0.040464 1 2 cbr 1000 ------- 2 1.0 2.0 37 39
r 0.040496 3 2 ack 40 ------- 2 3.0 0.0 0 41
+ 0.040496 2 1 ack 40 ------- 2 3.0 0.0 0 41
- 0.040496 2 1 ack 40 ------- 2 3.0 0.0 0 41
r 0.040528 5 2 ack 40 ------- 3 5.0 4.0 0 42
+ 0.040528 2 1 ack 40 ------- 3 5.0 4.0 0 42
- 0.040528 2 1 ack 40 ------- 3 5.0 4.0 0 42
+ 0.0408 1 2 cbr 1000 ------- 2 1.0 2.0 51 55
- 0.040864 1 2 cbr 1000 ------- 2 1.0 2.0 51 55
r 0.041264 1 2 cbr 1000 ------- 2 1.0 2.0 38 40
+ 0.0416 1 2 cbr 1000 ------- 2 1.0 2.0 52 56
- 0.041664 1 2 cbr 1000 ------- 2 1.0 2.0 52 56
r 0.042064 1 2 cbr 1000 ------- 2 1.0 2.0 39 43
+ 0.0424 1 2 cbr 1000 ------- 2 1.0 2.0 53 57
- 0.042464 1 2 cbr 1000 ------- 2 1.0 2.0 53 57
r 0.042864 1 2 cbr 1000 ------- 2 1.0 2.0 40 44
+ 0.0432 1 2 cbr 1000 ------- 2 1.0 2.0 54 58
- 0.043264 1 2 cbr 1000 ------- 2 1.0 2.0 54 58
r 0.043664 1 2 cbr 1000 ------- 2 1.0 2.0 41 45
+ 0.044 1 2 cbr 1000 ------- 2 1.0 2.0 55 59
- 0.044064 1 2 cbr 1000 ------- 2 1.0 2.0 55 59
r 0.044464 1 2 cbr 1000 ------- 2 1.0 2.0 42 46
+ 0.0448 1 2 cbr 1000 ------- 2 1.0 2.0 56 60
- 0.044864 1 2 cbr 1000 ------- 2 1.0 2.0 56 60
r 0.045264 1 2 cbr 1000 ------- 2 1.0 2.0 43 47
+ 0.0456 1 2 cbr 1000 ------- 2 1.0 2.0 57 61
- 0.045664 1 2 cbr 1000 ------- 2 1.0 2.0 57 61
r 0.046064 1 2 cbr 1000 ------- 2 1.0 2.0 44 48
+ 0.0464 1 2 cbr 1000 ------- 2 1.0 2.0 58 62
- 0.046464 1 2 cbr 1000 ------- 2 1.0 2.0 58 62
r 0.046864 1 2 cbr 1000 ------- 2 1.0 2.0 45 49
+ 0.0472 1 2 cbr 1000 ------- 2 1.0 2.0 59 63
- 0.047264 1 2 cbr 1000 ------- 2 1.0 2.0 59 63
r 0.047664 1 2 cbr 1000 ------- 2 1.0 2.0 46 50
+ 0.048 1 2 cbr 1000 ------- 2 1.0 2.0 60 64
- 0.048064 1 2 cbr 1000 ------- 2 1.0 2.0 60 64
r 0.048464 1 2 cbr 1000 ------- 2 1.0 2.0 47 51
+ 0.0488 1 2 cbr 1000 ------- 2 1.0 2.0 61 65
- 0.048864 1 2 cbr 1000 ------- 2 1.0 2.0 61 65
r 0.049264 1 2 cbr 1000 ------- 2 1.0 2.0 48 52
+ 0.0496 1 2 cbr 1000 ------- 2 1.0 2.0 62 66
- 0.049664 1 2 cbr 1000 ------- 2 1.0 2.0 62 66
r 0.050064 1 2 cbr 1000 ------- 2 1.0 2.0 49 53
+ 0.0504 1 2 cbr 1000 ------- 2 1.0 2.0 63 67
- 0.050464 1 2 cbr 1000 ------- 2 1.0 2.0 63 67
r 0.050528 2 1 ack 40 ------- 2 3.0 0.0 0 41
+ 0.050528 1 0 ack 40 ------- 2 3.0 0.0 0 41
- 0.050528 1 0 ack 40 ------- 2 3.0 0.0 0 41
r 0.05056 2 1 ack 40 ------- 3 5.0 4.0 0 42
+ 0.05056 1 4 ack 40 ------- 3 5.0 4.0 0 42
- 0.05056 1 4 ack 40 ------- 3 5.0 4.0 0 42
r 0.050864 1 2 cbr 1000 ------- 2 1.0 2.0 50 54
+ 0.0512 1 2 cbr 1000 ------- 2 1.0 2.0 64 68
- 0.051264 1 2 cbr 1000 ------- 2 1.0 2.0 64 68
r 0.051664 1 2 cbr 1000 ------- 2 1.0 2.0 51 55
+ 0.052 1 2 cbr 1000 ------- 2 1.0 2.0 65 69
- 0.052064 1 2 cbr 1000 ------- 2 1.0 2.0 65 69
r 0.052464 1 2 cbr 1000 ------- 2 1.0 2.0 52 56
+ 0.0528 1 2 cbr 1000 ------- 2 1.0 2.0 66 70
- 0.052864 1 2 cbr 1000 ------- 2 1.0 2.0 66 70
r 0.053264 1 2 cbr 1000 ------- 2 1.0 2.0 53 57
+ 0.0536 1 2 cbr 1000 ------- 2 1.0 2.0 67 71
- 0.053664 1 2 cbr 1000 ------- 2 1.0 2.0 67 71
r 0.054064 1 2 cbr 1000 ------- 2 1.0 2.0 54 58
+ 0.0544 1 2 cbr 1000 ------- 2 1.0 2.0 68 72
- 0.054464 1 2 cbr 1000 ------- 2 1.0 2.0 68 72
r 0.054864 1 2 cbr 1000 ------- 2 1.0 2.0 55 59
+ 0.0552 1 2 cbr 1000 ------- 2 1.0 2.0 69 73
- 0.055264 1 2 cbr 1000 ------- 2 1.0 2.0 69 73
r 0.055664 1 2 cbr 1000 ------- 2 1.0 2.0 56 60
+ 0.056 1 2 cbr 1000 ------- 2 1.0 2.0 70 74
- 0.056064 1 2 cbr 1000 ------- 2 1.0 2.0 70 74
r 0.056464 1 2 cbr 1000 ------- 2 1.0 2.0 57 61
+ 0.0568 1 2 cbr 1000 ------- 2 1.0 2.0 71 75
- 0.056864 1 2 cbr 1000 ------- 2 1.0 2.0 71 75
r 0.057264 1 2 cbr 1000 ------- 2 1.0 2.0 58 62
+ 0.0576 1 2 cbr 1000 ------- 2 1.0 2.0 72 76
- 0.057664 1 2 cbr 1000 ------- 2 1.0 2.0 72 76
r 0.058064 1 2 cbr 1000 ------- 2 1.0 2.0 59 63
+ 0.0584 1 2 cbr 1000 ------- 2 1.0 2.0 73 77
- 0.058464 1 2 cbr 1000 ------- 2 1.0 2.0 73 77
r 0.058864 1 2 cbr 1000 ------- 2 1.0 2.0 60 64
+ 0.0592 1 2 cbr 1000 ------- 2 1.0 2.0 74 78
- 0.059264 1 2 cbr 1000 ------- 2 1.0 2.0 74 78
r 0.059664 1 2 cbr 1000 ------- 2 1.0 2.0 61 65
+ 0.06 1 2 cbr 1000 ------- 2 1.0 2.0 75 79
- 0.060064 1 2 cbr 1000 ------- 2 1.0 2.0 75 79
r 0.060464 1 2 cbr 1000 ------- 2 1.0 2.0 62 66
r 0.06056 1 0 ack 40 ------- 2 3.0 0.0 0 41
+ 0.06056 0 1 tcp 1040 ------- 2 0.0 3.0 1 80
- 0.06056 0 1 tcp 1040 ------- 2 0.0 3.0 1 80
+ 0.06056 0 1 tcp 1040 ------- 2 0.0 3.0 2 81
r 0.060592 1 4 ack 40 ------- 3 5.0 4.0 0 42
+ 0.060592 4 1 tcp 1040 ------- 3 4.0 5.0 1 82
- 0.060592 4 1 tcp 1040 ------- 3 4.0 5.0 1 82
+ 0.060592 4 1 tcp 1040 ------- 3 4.0 5.0 2 83
+ 0.0608 1 2 cbr 1000 ------- 2 1.0 2.0 76 84
- 0.060864 1 2 cbr 1000 ------- 2 1.0 2.0 76 84
r 0.061264 1 2 cbr 1000 ------- 2 1.0 2.0 63 67
- 0.061392 0 1 tcp 1040 ------- 2 0.0 3.0 2 81
- 0.061424 4 1 tcp 1040 ------- 3 4.0 5.0 2 83
+ 0.0616 1 2 cbr 1000 ------- 2 1.0 2.0 77 85
- 0.061664 1 2 cbr 1000 ------- 2 1.0 2.0 77 85
r 0.062064 1 2 cbr 1000 ------- 2 1.0 2.0 64 68
+ 0.0624 1 2 cbr 1000 ------- 2 1.0 2.0 78 86
- 0.062464 1 2 cbr 1000 ------- 2 1.0 2.0 78 86
r 0.062864 1 2 cbr 1000 ------- 2 1.0 2.0 65 69
+ 0.0632 1 2 cbr 1000 ------- 2 1.0 2.0 79 87
- 0.063264 1 2 cbr 1000 ------- 2 1.0 2.0 79 87
r 0.063664 1 2 cbr 1000 ------- 2 1.0 2.0 66 70
+ 0.064 1 2 cbr 1000 ------- 2 1.0 2.0 80 88
- 0.064064 1 2 cbr 1000 ------- 2 1.0 2.0 80 88
r 0.064464 1 2 cbr 1000 ------- 2 1.0 2.0 67 71
+ 0.0648 1 2 cbr 1000 ------- 2 1.0 2.0 81 89
- 0.064864 1 2 cbr 1000 ------- 2 1.0 2.0 81 89
r 0.065264 1 2 cbr 1000 ------- 2 1.0 2.0 68 72
+ 0.0656 1 2 cbr 1000 ------- 2 1.0 2.0 82 90
- 0.065664 1 2 cbr 1000 ------- 2 1.0 2.0 82 90
r 0.066064 1 2 cbr 1000 ------- 2 1.0 2.0 69 73
+ 0.0664 1 2 cbr 1000 ------- 2 1.0 2.0 83 91
- 0.066464 1 2 cbr 1000 ------- 2 1.0 2.0 83 91
r 0.066864 1 2 cbr 1000 ------- 2 1.0 2.0 70 74
+ 0.0672 1 2 cbr 1000 ------- 2 1.0 2.0 84 92
- 0.067264 1 2 cbr 1000 ------- 2 1.0 2.0 84 92
r 0.067664 1 2 cbr 1000 ------- 2 1.0 2.0 71 75
+ 0.068 1 2 cbr 1000 ------- 2 1.0 2.0 85 93
- 0.068064 1 2 cbr 1000 ------- 2 1.0 2.0 85 93
r 0.068464 1 2 cbr 1000 ------- 2 1.0 2.0 72 76
+ 0.0688 1 2 cbr 1000 ------- 2 1.0 2.0 86 94
- 0.068864 1 2 cbr 1000 ------- 2 1.0 2.0 86 94
r 0.069264 1 2 cbr 1000 ------- 2 1.0 2.0 73 77
+ 0.0696 1 2 cbr 1000 ------- 2 1.0 2.0 87 95
- 0.069664 1 2 cbr 1000 ------- 2 1.0 2.0 87 95
r 0.070064 1 2 cbr 1000 ------- 2 1.0 2.0 74 78
+ 0.0704 1 2 cbr 1000 ------- 2 1.0 2.0 88 96
- 0.070464 1 2 cbr 1000 ------- 2 1.0 2.0 88 96
r 0.070864 1 2 cbr 1000 ------- 2 1.0 2.0 75 79
+ 0.0712 1 2 cbr 1000 ------- 2 1.0 2.0 89 97
- 0.071264 1 2 cbr 1000 ------- 2 1.0 2.0 89 97
r 0.071392 0 1 tcp 1040 ------- 2 0.0 3.0 1 80
+ 0.071392 1 2 tcp 1040 ------- 2 0.0 3.0 1 80
r 0.071424 4 1 tcp 1040 ------- 3 4.0 5.0 1 82
+ 0.071424 1 2 tcp 1040 ------- 3 4.0 5.0 1 82
r 0.071664 1 2 cbr 1000 ------- 2 1.0 2.0 76 84
+ 0.072 1 2 cbr 1000 ------- 2 1.0 2.0 90 98
- 0.072064 1 2 tcp 1040 ------- 2 0.0 3.0 1 80
r 0.072224 0 1 tcp 1040 ------- 2 0.0 3.0 2 81
+ 0.072224 1 2 tcp 1040 ------- 2 0.0 3.0 2 81
r 0.072256 4 1 tcp 1040 ------- 3 4.0 5.0 2 83
+ 0.072256 1 2 tcp 1040 ------- 3 4.0 5.0 2 83
r 0.072464 1 2 cbr 1000 ------- 2 1.0 2.0 77 85
+ 0.0728 1 2 cbr 1000 ------- 2 1.0 2.0 91 99
- 0.072896 1 2 tcp 1040 ------- 3 4.0 5.0 1 82
r 0.073264 1 2 cbr 1000 ------- 2 1.0 2.0 78 86
+ 0.0736 1 2 cbr 1000 ------- 2 1.0 2.0 92 100
- 0.073728 1 2 cbr 1000 ------- 2 1.0 2.0 90 98
r 0.074064 1 2 cbr 1000 ------- 2 1.0 2.0 79 87
+ 0.0744 1 2 cbr 1000 ------- 2 1.0 2.0 93 101
- 0.074528 1 2 tcp 1040 ------- 2 0.0 3.0 2 81
r 0.074864 1 2 cbr 1000 ------- 2 1.0 2.0 80 88
+ 0.0752 1 2 cbr 1000 ------- 2 1.0 2.0 94 102
- 0.07536 1 2 tcp 1040 ------- 3 4.0 5.0 2 83
r 0.075664 1 2 cbr 1000 ------- 2 1.0 2.0 81 89
+ 0.076 1 2 cbr 1000 ------- 2 1.0 2.0 95 103
- 0.076192 1 2 cbr 1000 ------- 2 1.0 2.0 91 99
r 0.076464 1 2 cbr 1000 ------- 2 1.0 2.0 82 90
+ 0.0768 1 2 cbr 1000 ------- 2 1.0 2.0 96 104
- 0.076992 1 2 cbr 1000 ------- 2 1.0 2.0 92 100
r 0.077264 1 2 cbr 1000 ------- 2 1.0 2.0 83 91
+ 0.0776 1 2 cbr 1000 ------- 2 1.0 2.0 97 105
- 0.077792 1 2 cbr 1000 ------- 2 1.0 2.0 93 101
r 0.078064 1 2 cbr 1000 ------- 2 1.0 2.0 84 92
+ 0.0784 1 2 cbr 1000 ------- 2 1.0 2.0 98 106
- 0.078592 1 2 cbr 1000 ------- 2 1.0 2.0 94 102
r 0.078864 1 2 cbr 1000 ------- 2 1.0 2.0 85 93
+ 0.0792 1 2 cbr 1000 ------- 2 1.0 2.0 99 107
- 0.079392 1 2 cbr 1000 ------- 2 1.0 2.0 95 103
r 0.079664 1 2 cbr 1000 ------- 2 1.0 2.0 86 94
+ 0.08 1 2 cbr 1000 ------- 2 1.0 2.0 100 108
- 0.080192 1 2 cbr 1000 ------- 2 1.0 2.0 96 104
r 0.080464 1 2 cbr 1000 ------- 2 1.0 2.0 87 95
+ 0.0808 1 2 cbr 1000 ------- 2 1.0 2.0 101 109
- 0.080992 1 2 cbr 1000 ------- 2 1.0 2.0 97 105
r 0.081264 1 2 cbr 1000 ------- 2 1.0 2.0 88 96
+ 0.0816 1 2 cbr 1000 ------- 2 1.0 2.0 102 110
- 0.081792 1 2 cbr 1000 ------- 2 1.0 2.0 98 106
r 0.082064 1 2 cbr 1000 ------- 2 1.0 2.0 89 97
+ 0.0824 1 2 cbr 1000 ------- 2 1.0 2.0 103 111
- 0.082592 1 2 cbr 1000 ------- 2 1.0 2.0 99 107
r 0.082896 1 2 tcp 1040 ------- 2 0.0 3.0 1 80
+ 0.082896 2 3 tcp 1040 ------- 2 0.0 3.0 1 80
- 0.082896 2 3 tcp 1040 ------- 2 0.0 3.0 1 80
+ 0.0832 1 2 cbr 1000 ------- 2 1.0 2.0 104 112
- 0.083392 1 2 cbr 1000 ------- 2 1.0 2.0 100 108
r 0.083728 1 2 tcp 1040 ------- 3 4.0 5.0 1 82
+ 0.083728 2 5 tcp 1040 ------- 3 4.0 5.0 1 82
- 0.083728 2 5 tcp 1040 ------- 3 4.0 5.0 1 82
+ 0.084 1 2 cbr 1000 ------- 2 1.0 2.0 105 113
- 0.084192 1 2 cbr 1000 ------- 2 1.0 2.0 101 109
r 0.084528 1 2 cbr 1000 ------- 2 1.0 2.0 90 98
+ 0.0848 1 2 cbr 1000 ------- 2 1.0 2.0 106 114
- 0.084992 1 2 cbr 1000 ------- 2 1.0 2.0 102 110
r 0.08536 1 2 tcp 1040 ------- 2 0.0 3.0 2 81
+ 0.08536 2 3 tcp 1040 ------- 2 0.0 3.0 2 81
- 0.08536 2 3 tcp 1040 ------- 2 0.0 3.0 2 81
+ 0.0856 1 2 cbr 1000 ------- 2 1.0 2.0 107 115
- 0.085792 1 2 cbr 1000 ------- 2 1.0 2.0 103 111
r 0.086192 1 2 tcp 1040 ------- 3 4.0 5.0 2 83
+ 0.086192 2 5 tcp 1040 ------- 3 4.0 5.0 2 83
- 0.086192 2 5 tcp 1040 ------- 3 4.0 5.0 2 83
+ 0.0864 1 2 cbr 1000 ------- 2 1.0 2.0 108 116
- 0.086592 1 2 cbr 1000 ------- 2 1.0 2.0 104 112
r 0.086992 1 2 cbr 1000 ------- 2 1.0 2.0 91 99
+ 0.0872 1 2 cbr 1000 ------- 2 1.0 2.0 109 117
- 0.087392 1 2 cbr 1000 ------- 2 1.0 2.0 105 113
r 0.087792 1 2 cbr 1000 ------- 2 1.0 2.0 92 100
+ 0.088 1 2 cbr 1000 ------- 2 1.0 2.0 110 118
- 0.088192 1 2 cbr 1000 ------- 2 1.0 2.0 106 114
r 0.088592 1 2 cbr 1000 ------- 2 1.0 2.0 93 101
+ 0.0888 1 2 cbr 1000 ------- 2 1.0 2.0 111 119
- 0.088992 1 2 cbr 1000 ------- 2 1.0 2.0 107 115
r 0.089392 1 2 cbr 1000 ------- 2 1.0 2.0 94 102
+ 0.0896 1 2 cbr 1000 ------- 2 1.0 2.0 112 120
- 0.089792 1 2 cbr 1000 ------- 2 1.0 2.0 108 116
r 0.090192 1 2 cbr 1000 ------- 2 1.0 2.0 95 103
+ 0.0904 1 2 cbr 1000 ------- 2 1.0 2.0 113 121
- 0.090592 1 2 cbr 1000 ------- 2 1.0 2.0 109 117
r 0.090992 1 2 cbr 1000 ------- 2 1.0 2.0 96 104
+ 0.0912 1 2 cbr 1000 ------- 2 1.0 2.0 114 122
- 0.091392 1 2 cbr 1000 ------- 2 1.0 2.0 110 118
r 0.091792 1 2 cbr 1000 ------- 2 1.0 2.0 97 105
+ 0.092 1 2 cbr 1000 ------- 2 1.0 2.0 115 123
- 0.092192 1 2 cbr 1000 ------- 2 1.0 2.0 111 119
r 0.092592 1 2 cbr 1000 ------- 2 1.0 2.0 98 106
+ 0.0928 1 2 cbr 1000 ------- 2 1.0 2.0 116 124
- 0.092992 1 2 cbr 1000 ------- 2 1.0 2.0 112 120
r 0.093392 1 2 cbr 1000 ------- 2 1.0 2.0 99 107
+ 0.0936 1 2 cbr 1000 ------- 2 1.0 2.0 117 125
r 0.093728 2 3 tcp 1040 ------- 2 0.0 3.0 1 80
+ 0.093728 3 2 ack 40 ------- 2 3.0 0.0 1 126
- 0.093728 3 2 ack 40 ------- 2 3.0 0.0 1 126
- 0.093792 1 2 cbr 1000 ------- 2 1.0 2.0 113 121
r 0.094192 1 2 cbr 1000 ------- 2 1.0 2.0 100 108
+ 0.0944 1 2 cbr 1000 ------- 2 1.0 2.0 118 127
r 0.09456 2 5 tcp 1040 ------- 3 4.0 5.0 1 82
+ 0.09456 5 2 ack 40 ------- 3 5.0 4.0 1 128
- 0.09456 5 2 ack 40 ------- 3 5.0 4.0 1 128
- 0.094592 1 2 cbr 1000 ------- 2 1.0 2.0 114 122
r 0.094992 1 2 cbr 1000 ------- 2 1.0 2.0 101 109
+ 0.0952 1 2 cbr 1000 ------- 2 1.0 2.0 119 129
- 0.095392 1 2 cbr 1000 ------- 2 1.0 2.0 115 123
r 0.095792 1 2 cbr 1000 ------- 2 1.0 2.0 102 110
+ 0.096 1 2 cbr 1000 ------- 2 1.0 2.0 120 130
- 0.096192 1 2 cbr 1000 ------- 2 1.0 2.0 116 124
r 0.096192 2 3 tcp 1040 ------- 2 0.0 3.0 2 81
+ 0.096192 3 2 ack 40 ------- 2 3.0 0.0 2 131
- 0.096192 3 2 ack 40 ------- 2 3.0 0.0 2 131
r 0.096592 1 2 cbr 1000 ------- 2 1.0 2.0 103 111
+ 0.0968 1 2 cbr 1000 ------- 2 1.0 2.0 121 132
- 0.096992 1 2 cbr 1000 ------- 2 1.0 2.0 117 125
r 0.097024 2 5 tcp 1040 ------- 3 4.0 5.0 2 83
+ 0.097024 5 2 ack 40 ------- 3 5.0 4.0 2 133
- 0.097024 5 2 ack 40 ------- 3 5.0 4.0 2 133
r 0.097392 1 2 cbr 1000 ------- 2 1.0 2.0 104 112
+ 0.0976 1 2 cbr 1000 ------- 2 1.0 2.0 122 134
- 0.097792 1 2 cbr 1000 ------- 2 1.0 2.0 118 127
r 0.098192 1 2 cbr 1000 ------- 2 1.0 2.0 105 113
+ 0.0984 1 2 cbr 1000 ------- 2 1.0 2.0 123 135
- 0.098592 1 2 cbr 1000 ------- 2 1.0 2.0 119 129
r 0.098992 1 2 cbr 1000 ------- 2 1.0 2.0 106 114
+ 0.0992 1 2 cbr 1000 ------- 2 1.0 2.0 124 136
- 0.099392 1 2 cbr 1000 ------- 2 1.0 2.0 120 130
r 0.099792 1 2 cbr 1000 ------- 2 1.0 2.0 107 115
+ 0.1 1 2 cbr 1000 ------- 2 1.0 2.0 125 137
- 0.100192 1 2 cbr 1000 ------- 2 1.0 2.0 121 132
r 0.100592 1 2 cbr 1000 ------- 2 1.0 2.0 108 116
+ 0.1008 1 2 cbr 1000 ------- 2 1.0 2.0 126 138
- 0.100992 1 2 cbr 1000 ------- 2 1.0 2.0 122 134
r 0.101392 1 2 cbr 1000 ------- 2 1.0 2.0 109 117
+ 0.1016 1 2 cbr 1000 ------- 2 1.0 2.0 127 139
- 0.101792 1 2 cbr 1000 ------- 2 1.0 2.0 123 135
r 0.102192 1 2 cbr 1000 ------- 2 1.0 2.0 110 118
+ 0.1024 1 2 cbr 1000 ------- 2 1.0 2.0 128 140
- 0.102592 1 2 cbr 1000 ------- 2 1.0 2.0 124 136
r 0.102992 1 2 cbr 1000 ------- 2 1.0 2.0 111 119
+ 0.1032 1 2 cbr 1000 ------- 2 1.0 2.0 129 141
- 0.103392 1 2 cbr 1000 ------- 2 1.0 2.0 125 137
r 0.10376 3 2 ack 40 ------- 2 3.0 0.0 1 126
+ 0.10376 2 1 ack 40 ------- 2 3.0 0.0 1 126
- 0.10376 2 1 ack 40 ------- 2 3.0 0.0 1 126
r 0.103792 1 2 cbr 1000 ------- 2 1.0 2.0 112 120
+ 0.104 1 2 cbr 1000 ------- 2 1.0 2.0 130 142
- 0.104192 1 2 cbr 1000 ------- 2 1.0 2.0 126 138
r 0.104592 1 2 cbr 1000 ------- 2 1.0 2.0 113 121
r 0.104592 5 2 ack 40 ------- 3 5.0 4.0 1 128
+ 0.104592 2 1 ack 40 ------- 3 5.0 4.0 1 128
- 0.104592 2 1 ack 40 ------- 3 5.0 4.0 1 128
+ 0.1048 1 2 cbr 1000 ------- 2 1.0 2.0 131 143
- 0.104992 1 2 cbr 1000 ------- 2 1.0 2.0 127 139
r 0.105392 1 2 cbr 1000 ------- 2 1.0 2.0 114 122
+ 0.1056 1 2 cbr 1000 ------- 2 1.0 2.0 132 144
- 0.105792 1 2 cbr 1000 ------- 2 1.0 2.0 128 140
r 0.106192 1 2 cbr 1000 ------- 2 1.0 2.0 115 123
r 0.106224 3 2 ack 40 ------- 2 3.0 0.0 2 131
+ 0.106224 2 1 ack 40 ------- 2 3.0 0.0 2 131
- 0.106224 2 1 ack 40 ------- 2 3.0 0.0 2 131
+ 0.1064 1 2 cbr 1000 ------- 2 1.0 2.0 133 145
- 0.106592 1 2 cbr 1000 ------- 2 1.0 2.0 129 141
r 0.106992 1 2 cbr 1000 ------- 2 1.0 2.0 116 124
r 0.107056 5 2 ack 40 ------- 3 5.0 4.0 2 133
+ 0.107056 2 1 ack 40 ------- 3 5.0 4.0 2 133
- 0.107056 2 1 ack 40 ------- 3 5.0 4.0 2 133
+ 0.1072 1 2 cbr 1000 ------- 2 1.0 2.0 134 146
- 0.107392 1 2 cbr 1000 ------- 2 1.0 2.0 130 142
r 0.107792 1 2 cbr 1000 ------- 2 1.0 2.0 117 125
+ 0.108 1 2 cbr 1000 ------- 2 1.0 2.0 135 147
- 0.108192 1 2 cbr 1000 ------- 2 1.0 2.0 131 143
r 0.108592 1 2 cbr 1000 ------- 2 1.0 2.0 118 127
+ 0.1088 1 2 cbr 1000 ------- 2 1.0 2.0 136 148
- 0.108992 1 2 cbr 1000 ------- 2 1.0 2.0 132 144
r 0.109392 1 2 cbr 1000 ------- 2 1.0 2.0 119 129
+ 0.1096 1 2 cbr 1000 ------- 2 1.0 2.0 137 149
- 0.109792 1 2 cbr 1000 ------- 2 1.0 2.0 133 145
r 0.110192 1 2 cbr 1000 ------- 2 1.0 2.0 120 130
+ 0.1104 1 2 cbr 1000 ------- 2 1.0 2.0 138 150
- 0.110592 1 2 cbr 1000 ------- 2 1.0 2.0 134 146
r 0.110992 1 2 cbr 1000 ------- 2 1.0 2.0 121 132
+ 0.1112 1 2 cbr 1000 ------- 2 1.0 2.0 139 151
- 0.111392 1 2 cbr 1000 ------- 2 1.0 2.0 135 147
r 0.111792 1 2 cbr 1000 ------- 2 1.0 2.0 122 134
+ 0.112 1 2 cbr 1000 ------- 2 1.0 2.0 140 152
- 0.112192 1 2 cbr 1000 ------- 2 1.0 2.0 136 148
r 0.112592 1 2 cbr 1000 ------- 2 1.0 2.0 123 135
+ 0.1128 1 2 cbr 1000 ------- 2 1.0 2.0 141 153
- 0.112992 1 2 cbr 1000 ------- 2 1.0 2.0 137 149
r 0.113392 1 2 cbr 1000 ------- 2 1.0 2.0 124 136
+ 0.1136 1 2 cbr 1000 ------- 2 1.0 2.0 142 154
- 0.113792 1 2 cbr 1000 ------- 2 1.0 2.0 138 150
r 0.113792 2 1 ack 40 ------- 2 3.0 0.0 1 126
+ 0.113792 1 0 ack 40 ------- 2 3.0 0.0 1 126
- 0.113792 1 0 ack 40 ------- 2 3.0 0.0 1 126
r 0.114192 1 2 cbr 1000 ------- 2 1.0 2.0 125 137
+ 0.1144 1 2 cbr 1000 ------- 2 1.0 2.0 143 155
- 0.114592 1 2 cbr 1000 ------- 2 1.0 2.0 139 151
r 0.114624 2 1 ack 40 ------- 3 5.0 4.0 1 128
+ 0.114624 1 4 ack 40 ------- 3 5.0 4.0 1 128
- 0.114624 1 4 ack 40 ------- 3 5.0 4.0 1 128
r 0.114992 1 2 cbr 1000 ------- 2 1.0 2.0 126 138
+ 0.1152 1 2 cbr 1000 ------- 2 1.0 2.0 144 156
- 0.115392 1 2 cbr 1000 ------- 2 1.0 2.0 140 152
r 0.115792 1 2 cbr 1000 ------- 2 1.0 2.0 127 139
+ 0.116 1 2 cbr 1000 ------- 2 1.0 2.0 145 157
- 0.116192 1 2 cbr 1000 ------- 2 1.0 2.0 141 153
r 0.116256 2 1 ack 40 ------- 2 3.0 0.0 2 131
+ 0.116256 1 0 ack 40 ------- 2 3.0 0.0 2 131
- 0.116256 1 0 ack 40 ------- 2 3.0 0.0 2 131
r 0.116592 1 2 cbr 1000 ------- 2 1.0 2.0 128 140
+ 0.1168 1 2 cbr 1000 ------- 2 1.0 2.0 146 158
- 0.116992 1 2 cbr 1000 ------- 2 1.0 2.0 142 154
r 0.117088 2 1 ack 40 ------- 3 5.0 4.0 2 133
+ 0.117088 1 4 ack 40 ------- 3 5.0 4.0 2 133
- 0.117088 1 4 ack 40 ------- 3 5.0 4.0 2 133
r 0.117392 1 2 cbr 1000 ------- 2 1.0 2.0 129 141
+ 0.1176 1 2 cbr 1000 ------- 2 1.0 2.0 147 159
- 0.117792 1 2 cbr 1000 ------- 2 1.0 2.0 143 155
r 0.118192 1 2 cbr 1000 ------- 2 1.0 2.0 130 142
+ 0.1184 1 2 cbr 1000 ------- 2 1.0 2.0 148 160
- 0.118592 1 2 cbr 1000 ------- 2 1.0 2.0 144 156
r 0.118992 1 2 cbr 1000 ------- 2 1.0 2.0 131 143
+ 0.1192 1 2 cbr 1000 ------- 2 1.0 2.0 149 161
- 0.119392 1 2 cbr 1000 ------- 2 1.0 2.0 145 157
r 0.119792 1 2 cbr 1000 ------- 2 1.0 2.0 132 144
+ 0.12 1 2 cbr 1000 ------- 2 1.0 2.0 150 162
- 0.120192 1 2 cbr 1000 ------- 2 1.0 2.0 146 158
r 0.120592 1 2 cbr 1000 ------- 2 1.0 2.0 133 145
+ 0.1208 1 2 cbr 1000 ------- 2 1.0 2.0 151 163
- 0.120992 1 2 cbr 1000 ------- 2 1.0 2.0 147 159
r 0.121392 1 2 cbr 1000 ------- 2 1.0 2.0 134 146
+ 0.1216 1 2 cbr 1000 ------- 2 1.0 2.0 152 164
- 0.121792 1 2 cbr 1000 ------- 2 1.0 2.0 148 160
r 0.122192 1 2 cbr 1000 ------- 2 1.0 2.0 135 147
+ 0.1224 1 2 cbr 1000 ------- 2 1.0 2.0 153 165
- 0.122592 1 2 cbr 1000 ------- 2 1.0 2.0 149 161
r 0.122992 1 2 cbr 1000 ------- 2 1.0 2.0 136 148
+ 0.1232 1 2 cbr 1000 ------- 2 1.0 2.0 154 166
- 0.123392 1 2 cbr 1000 ------- 2 1.0 2.0 150 162
r 0.123792 1 2 cbr 1000 ------- 2 1.0 2.0 137 149
r 0.123824 1 0 ack 40 ------- 2 3.0 0.0 1 126
+ 0.123824 0 1 tcp 1040 ------- 2 0.0 3.0 3 167
- 0.123824 0 1 tcp 1040 ------- 2 0.0 3.0 3 167
+ 0.123824 0 1 tcp 1040 ------- 2 0.0 3.0 4 168
+ 0.124 1 2 cbr 1000 ------- 2 1.0 2.0 155 169
- 0.124192 1 2 cbr 1000 ------- 2 1.0 2.0 151 163
r 0.124592 1 2 cbr 1000 ------- 2 1.0 2.0 138 150
r 0.124656 1 4 ack 40 ------- 3 5.0 4.0 1 128
+ 0.124656 4 1 tcp 1040 ------- 3 4.0 5.0 3 170
- 0.124656 4 1 tcp 1040 ------- 3 4.0 5.0 3 170
+ 0.124656 4 1 tcp 1040 ------- 3 4.0 5.0 4 171
- 0.124656 0 1 tcp 1040 ------- 2 0.0 3.0 4 168
+ 0.1248 1 2 cbr 1000 ------- 2 1.0 2.0 156 172
- 0.124992 1 2 cbr 1000 ------- 2 1.0 2.0 152 164
r 0.125392 1 2 cbr 1000 ------- 2 1.0 2.0 139 151
- 0.125488 4 1 tcp 1040 ------- 3 4.0 5.0 4 171
+ 0.1256 1 2 cbr 1000 ------- 2 1.0 2.0 157 173
- 0.125792 1 2 cbr 1000 ------- 2 1.0 2.0 153 165
r 0.126192 1 2 cbr 1000 ------- 2 1.0 2.0 140 152
r 0.126288 1 0 ack 40 ------- 2 3.0 0.0 2 131
+ 0.126288 0 1 tcp 1040 ------- 2 0.0 3.0 5 174
- 0.126288 0 1 tcp 1040 ------- 2 0.0 3.0 5 174
+ 0.126288 0 1 tcp 1040 ------- 2 0.0 3.0 6 175
+ 0.1264 1 2 cbr 1000 ------- 2 1.0 2.0 158 176
- 0.126592 1 2 cbr 1000 ------- 2 1.0 2.0 154 166
r 0.126992 1 2 cbr 1000 ------- 2 1.0 2.0 141 153
r 0.12712 1 4 ack 40 ------- 3 5.0 4.0 2 133
+ 0.12712 4 1 tcp 1040 ------- 3 4.0 5.0 5 177
- 0.12712 4 1 tcp 1040 ------- 3 4.0 5.0 5 177
+ 0.12712 4 1 tcp 1040 ------- 3 4.0 5.0 6 178
- 0.12712 0 1 tcp 1040 ------- 2 0.0 3.0 6 175
+ 0.1272 1 2 cbr 1000 ------- 2 1.0 2.0 159 179
- 0.127392 1 2 cbr 1000 ------- 2 1.0 2.0 155 169
r 0.127792 1 2 cbr 1000 ------- 2 1.0 2.0 142 154
- 0.127952 4 1 tcp 1040 ------- 3 4.0 5.0 6 178
+ 0.128 1 2 cbr 1000 ------- 2 1.0 2.0 160 180
- 0.128192 1 2 cbr 1000 ------- 2 1.0 2.0 156 172
r 0.128592 1 2 cbr 1000 ------- 2 1.0 2.0 143 155
+ 0.1288 1 2 cbr 1000 ------- 2 1.0 2.0 161 181
- 0.128992 1 2 cbr 1000 ------- 2 1.0 2.0 157 173
r 0.129392 1 2 cbr 1000 ------- 2 1.0 2.0 144 156
+ 0.1296 1 2 cbr 1000 ------- 2 1.0 2.0 162 182
- 0.129792 1 2 cbr 1000 ------- 2 1.0 2.0 158 176
r 0.130192 1 2 cbr 1000 ------- 2 1.0 2.0 145 157
+ 0.1304 1 2 cbr 1000 ------- 2 1.0 2.0 163 183
- 0.130592 1 2 cbr 1000 ------- 2 1.0 2.0 159 179
r 0.130992 1 2 cbr 1000 ------- 2 1.0 2.0 146 158
+ 0.1312 1 2 cbr 1000 ------- 2 1.0 2.0 164 184
- 0.131392 1 2 cbr 1000 ------- 2 1.0 2.0 160 180
r 0.131792 1 2 cbr 1000 ------- 2 1.0 2.0 147 159
+ 0.132 1 2 cbr 1000 ------- 2 1.0 2.0 165 185
- 0.132192 1 2 cbr 1000 ------- 2 1.0 2.0 161 181
r 0.132592 1 2 cbr 1000 ------- 2 1.0 2.0 148 160
+ 0.1328 1 2 cbr 1000 ------- 2 1.0 2.0 166 186
- 0.132992 1 2 cbr 1000 ------- 2 1.0 2.0 162 182
r 0.133392 1 2 cbr 1000 ------- 2 1.0 2.0 149 161
+ 0.1336 1 2 cbr 1000 ------- 2 1.0 2.0 167 187
- 0.133792 1 2 cbr 1000 ------- 2 1.0 2.0 163 183
r 0.134192 1 2 cbr 1000 ------- 2 1.0 2.0 150 162
+ 0.1344 1 2 cbr 1000 ------- 2 1.0 2.0 168 188
- 0.134592 1 2 cbr 1000 ------- 2 1.0 2.0 164 184
r 0.134656 0 1 tcp 1040 ------- 2 0.0 3.0 3 167
+ 0.134656 1 2 tcp 1040 ------- 2 0.0 3.0 3 167
r 0.134992 1 2 cbr 1000 ------- 2 1.0 2.0 151 163
+ 0.1352 1 2 cbr 1000 ------- 2 1.0 2.0 169 189
- 0.135392 1 2 cbr 1000 ------- 2 1.0 2.0 165 185
r 0.135488 4 1 tcp 1040 ------- 3 4.0 5.0 3 170
+ 0.135488 1 2 tcp 1040 ------- 3 4.0 5.0 3 170
r 0.135488 0 1 tcp 1040 ------- 2 0.0 3.0 4 168
+ 0.135488 1 2 tcp 1040 ------- 2 0.0 3.0 4 168
r 0.135792 1 2 cbr 1000 ------- 2 1.0 2.0 152 164
+ 0.136 1 2 cbr 1000 ------- 2 1.0 2.0 170 190
- 0.136192 1 2 cbr 1000 ------- 2 1.0 2.0 166 186
r 0.13632 4 1 tcp 1040 ------- 3 4.0 5.0 4 171
+ 0.13632 1 2 tcp 1040 ------- 3 4.0 5.0 4 171
r 0.136592 1 2 cbr 1000 ------- 2 1.0 2.0 153 165
+ 0.1368 1 2 cbr 1000 ------- 2 1.0 2.0 171 191
- 0.136992 1 2 cbr 1000 ------- 2 1.0 2.0 167 187
r 0.13712 0 1 tcp 1040 ------- 2 0.0 3.0 5 174
+ 0.13712 1 2 tcp 1040 ------- 2 0.0 3.0 5 174
r 0.137392 1 2 cbr 1000 ------- 2 1.0 2.0 154 166
+ 0.1376 1 2 cbr 1000 ------- 2 1.0 2.0 172 192
d 0.1376 1 2 cbr 1000 ------- 2 1.0 2.0 172 192
- 0.137792 1 2 cbr 1000 ------- 2 1.0 2.0 168 188