+ 0 1 2 cbr 1000 ------- 2 1.0 2.0 0 0
- 0 1 2 cbr 1000 ------- 2 1.0 2.0 0 0
+ 0 0 1 tcp 40 ------- 2 0.0 3.0 0 1
- 0 0 1 tcp 40 ------- 2 0.0 3.0 0 1
+ 0 4 1 tcp 40 ------- 3 4.0 5.0 0 2
- 0 4 1 tcp 40 ------- 3 4.0 5.0 0 2
+ 0.000889 1 2 cbr 1000 ------- 2 1.0 2.0 1 3
- 0.000889 1 2 cbr 1000 ------- 2 1.0 2.0 1 3
+ 0.001778 1 2 cbr 1000 ------- 2 1.0 2.0 2 4
- 0.001778 1 2 cbr 1000 ------- 2 1.0 2.0 2 4
+ 0.002667 1 2 cbr 1000 ------- 2 1.0 2.0 3 5
- 0.002667 1 2 cbr 1000 ------- 2 1.0 2.0 3 5
+ 0.003556 1 2 cbr 1000 ------- 2 1.0 2.0 4 6
- 0.003556 1 2 cbr 1000 ------- 2 1.0 2.0 4 6
+ 0.004444 1 2 cbr 1000 ------- 2 1.0 2.0 5 7
- 0.004444 1 2 cbr 1000 ------- 2 1.0 2.0 5 7
+ 0.005333 1 2 cbr 1000 ------- 2 1.0 2.0 6 8
- 0.005333 1 2 cbr 1000 ------- 2 1.0 2.0 6 8
+ 0.006222 1 2 cbr 1000 ------- 2 1.0 2.0 7 9
- 0.006222 1 2 cbr 1000 ------- 2 1.0 2.0 7 9
+ 0.007111 1 2 cbr 1000 ------- 2 1.0 2.0 8 10
- 0.007111 1 2 cbr 1000 ------- 2 1.0 2.0 8 10
+ 0.008 1 2 cbr 1000 ------- 2 1.0 2.0 9 11
- 0.008 1 2 cbr 1000 ------- 2 1.0 2.0 9 11
+ 0.008889 1 2 cbr 1000 ------- 2 1.0 2.0 10 12
- 0.008889 1 2 cbr 1000 ------- 2 1.0 2.0 10 12
+ 0.009778 1 2 cbr 1000 ------- 2 1.0 2.0 11 13
- 0.009778 1 2 cbr 1000 ------- 2 1.0 2.0 11 13
r 0.010032 0 1 tcp 40 ------- 2 0.0 3.0 0 1
+ 0.010032 1 2 tcp 40 ------- 2 0.0 3.0 0 1
r 0.010032 4 1 tcp 40 ------- 3 4.0 5.0 0 2
+ 0.010032 1 2 tcp 40 ------- 3 4.0 5.0 0 2
- 0.010578 1 2 tcp 40 ------- 2 0.0 3.0 0 1
- 0.01061 1 2 tcp 40 ------- 3 4.0 5.0 0 2
+ 0.010667 1 2 cbr 1000 ------- 2 1.0 2.0 12 14
- 0.010667 1 2 cbr 1000 ------- 2 1.0 2.0 12 14
r 0.0108 1 2 cbr 1000 ------- 2 1.0 2.0 0 0
+ 0.011556 1 2 cbr 1000 ------- 2 1.0 2.0 13 15
- 0.011556 1 2 cbr 1000 ------- 2 1.0 2.0 13 15
r 0.011689 1 2 cbr 1000 ------- 2 1.0 2.0 1 3
+ 0.012444 1 2 cbr 1000 ------- 2 1.0 2.0 14 16
- 0.012444 1 2 cbr 1000 ------- 2 1.0 2.0 14 16
r 0.012578 1 2 cbr 1000 ------- 2 1.0 2.0 2 4
+ 0.013333 1 2 cbr 1000 ------- 2 1.0 2.0 15 17
- 0.013333 1 2 cbr 1000 ------- 2 1.0 2.0 15 17
r 0.013467 1 2 cbr 1000 ------- 2 1.0 2.0 3 5
+ 0.014222 1 2 cbr 1000 ------- 2 1.0 2.0 16 18
- 0.014222 1 2 cbr 1000 ------- 2 1.0 2.0 16 18
r 0.014356 1 2 cbr 1000 ------- 2 1.0 2.0 4 6
+ 0.015111 1 2 cbr 1000 ------- 2 1.0 2.0 17 19
- 0.015111 1 2 cbr 1000 ------- 2 1.0 2.0 17 19
r 0.015244 1 2 cbr 1000 ------- 2 1.0 2.0 5 7
+ 0.016 1 2 cbr 1000 ------- 2 1.0 2.0 18 20
- 0.016 1 2 cbr 1000 ------- 2 1.0 2.0 18 20
r 0.016133 1 2 cbr 1000 ------- 2 1.0 2.0 6 8
+ 0.016889 1 2 cbr 1000 ------- 2 1.0 2.0 19 21
- 0.016889 1 2 cbr 1000 ------- 2 1.0 2.0 19 21
r 0.017022 1 2 cbr 1000 ------- 2 1.0 2.0 7 9
+ 0.017778 1 2 cbr 1000 ------- 2 1.0 2.0 20 22
- 0.017778 1 2 cbr 1000 ------- 2 1.0 2.0 20 22
r 0.017911 1 2 cbr 1000 ------- 2 1.0 2.0 8 10
+ 0.018667 1 2 cbr 1000 ------- 2 1.0 2.0 21 23
- 0.018667 1 2 cbr 1000 ------- 2 1.0 2.0 21 23
r 0.0188 1 2 cbr 1000 ------- 2 1.0 2.0 9 11
+ 0.019556 1 2 cbr 1000 ------- 2 1.0 2.0 22 24
- 0.019556 1 2 cbr 1000 ------- 2 1.0 2.0 22 24
r 0.019689 1 2 cbr 1000 ------- 2 1.0 2.0 10 12
+ 0.020444 1 2 cbr 1000 ------- 2 1.0 2.0 23 25
- 0.020444 1 2 cbr 1000 ------- 2 1.0 2.0 23 25
r 0.020578 1 2 cbr 1000 ------- 2 1.0 2.0 11 13
r 0.02061 1 2 tcp 40 ------- 2 0.0 3.0 0 1
+ 0.02061 2 3 tcp 40 ------- 2 0.0 3.0 0 1
- 0.02061 2 3 tcp 40 ------- 2 0.0 3.0 0 1
r 0.020642 1 2 tcp 40 ------- 3 4.0 5.0 0 2
+ 0.020642 2 5 tcp 40 ------- 3 4.0 5.0 0 2
- 0.020642 2 5 tcp 40 ------- 3 4.0 5.0 0 2
+ 0.021333 1 2 cbr 1000 ------- 2 1.0 2.0 24 26
- 0.021333 1 2 cbr 1000 ------- 2 1.0 2.0 24 26
r 0.021467 1 2 cbr 1000 ------- 2 1.0 2.0 12 14
+ 0.022222 1 2 cbr 1000 ------- 2 1.0 2.0 25 27
- 0.022222 1 2 cbr 1000 ------- 2 1.0 2.0 25 27
r 0.022356 1 2 cbr 1000 ------- 2 1.0 2.0 13 15
+ 0.023111 1 2 cbr 1000 ------- 2 1.0 2.0 26 28
- 0.023111 1 2 cbr 1000 ------- 2 1.0 2.0 26 28
r 0.023244 1 2 cbr 1000 ------- 2 1.0 2.0 14 16
+ 0.024 1 2 cbr 1000 ------- 2 1.0 2.0 27 29
- 0.024 1 2 cbr 1000 ------- 2 1.0 2.0 27 29
r 0.024133 1 2 cbr 1000 ------- 2 1.0 2.0 15 17
+ 0.024889 1 2 cbr 1000 ------- 2 1.0 2.0 28 30
- 0.024889 1 2 cbr 1000 ------- 2 1.0 2.0 28 30
r 0.025022 1 2 cbr 1000 ------- 2 1.0 2.0 16 18
+ 0.025778 1 2 cbr 1000 ------- 2 1.0 2.0 29 31
- 0.025778 1 2 cbr 1000 ------- 2 1.0 2.0 29 31
r 0.025911 1 2 cbr 1000 ------- 2 1.0 2.0 17 19
+ 0.026667 1 2 cbr 1000 ------- 2 1.0 2.0 30 32
- 0.026667 1 2 cbr 1000 ------- 2 1.0 2.0 30 32
r 0.0268 1 2 cbr 1000 ------- 2 1.0 2.0 18 20
+ 0.027556 1 2 cbr 1000 ------- 2 1.0 2.0 31 33
- 0.027556 1 2 cbr 1000 ------- 2 1.0 2.0 31 33
r 0.027689 1 2 cbr 1000 ------- 2 1.0 2.0 19 21
+ 0.028444 1 2 cbr 1000 ------- 2 1.0 2.0 32 34
- 0.028444 1 2 cbr 1000 ------- 2 1.0 2.0 32 34
r 0.028578 1 2 cbr 1000 ------- 2 1.0 2.0 20 22
+ 0.029333 1 2 cbr 1000 ------- 2 1.0 2.0 33 35
- 0.029333 1 2 cbr 1000 ------- 2 1.0 2.0 33 35
r 0.029467 1 2 cbr 1000 ------- 2 1.0 2.0 21 23
+ 0.030222 1 2 cbr 1000 ------- 2 1.0 2.0 34 36
- 0.030222 1 2 cbr 1000 ------- 2 1.0 2.0 34 36
r 0.030356 1 2 cbr 1000 ------- 2 1.0 2.0 22 24
r 0.030642 2 3 tcp 40 ------- 2 0.0 3.0 0 1
+ 0.030642 3 2 ack 40 ------- 2 3.0 0.0 0 37
- 0.030642 3 2 ack 40 ------- 2 3.0 0.0 0 37
r 0.030674 2 5 tcp 40 ------- 3 4.0 5.0 0 2
+ 0.030674 5 2 ack 40 ------- 3 5.0 4.0 0 38
- 0.030674 5 2 ack 40 ------- 3 5.0 4.0 0 38
+ 0.031111 1 2 cbr 1000 ------- 2 1.0 2.0 35 39
- 0.031111 1 2 cbr 1000 ------- 2 1.0 2.0 35 39
r 0.031244 1 2 cbr 1000 ------- 2 1.0 2.0 23 25
+ 0.032 1 2 cbr 1000 ------- 2 1.0 2.0 36 40
- 0.032 1 2 cbr 1000 ------- 2 1.0 2.0 36 40
r 0.032133 1 2 cbr 1000 ------- 2 1.0 2.0 24 26
+ 0.032889 1 2 cbr 1000 ------- 2 1.0 2.0 37 41
- 0.032889 1 2 cbr 1000 ------- 2 1.0 2.0 37 41
r 0.033022 1 2 cbr 1000 ------- 2 1.0 2.0 25 27
+ 0.033778 1 2 cbr 1000 ------- 2 1.0 2.0 38 42
- 0.033778 1 2 cbr 1000 ------- 2 1.0 2.0 38 42
r 0.033911 1 2 cbr 1000 ------- 2 1.0 2.0 26 28
+ 0.034667 1 2 cbr 1000 ------- 2 1.0 2.0 39 43
- 0.034667 1 2 cbr 1000 ------- 2 1.0 2.0 39 43
r 0.0348 1 2 cbr 1000 ------- 2 1.0 2.0 27 29
+ 0.035556 1 2 cbr 1000 ------- 2 1.0 2.0 40 44
- 0.035556 1 2 cbr 1000 ------- 2 1.0 2.0 40 44
r 0.035689 1 2 cbr 1000 ------- 2 1.0 2.0 28 30
+ 0.036444 1 2 cbr 1000 ------- 2 1.0 2.0 41 45
- 0.036444 1 2 cbr 1000 ------- 2 1.0 2.0 41 45
r 0.036578 1 2 cbr 1000 ------- 2 1.0 2.0 29 31
+ 0.037333 1 2 cbr 1000 ------- 2 1.0 2.0 42 46
- 0.037333 1 2 cbr 1000 ------- 2 1.0 2.0 42 46
r 0.037467 1 2 cbr 1000 ------- 2 1.0 2.0 30 32
+ 0.038222 1 2 cbr 1000 ------- 2 1.0 2.0 43 47
- 0.038222 1 2 cbr 1000 ------- 2 1.0 2.0 43 47
r 0.038356 1 2 cbr 1000 ------- 2 1.0 2.0 31 33
+ 0.039111 1 2 cbr 1000 ------- 2 1.0 2.0 44 48
- 0.039111 1 2 cbr 1000 ------- 2 1.0 2.0 44 48
r 0.039244 1 2 cbr 1000 ------- 2 1.0 2.0 32 34
+ 0.04 1 2 cbr 1000 ------- 2 1.0 2.0 45 49
- 0.04 1 2 cbr 1000 ------- 2 1.0 2.0 45 49
r 0.040133 1 2 cbr 1000 ------- 2 1.0 2.0 33 35
r 0.040674 3 2 ack 40 ------- 2 3.0 0.0 0 37
+ 0.040674 2 1 ack 40 ------- 2 3.0 0.0 0 37
- 0.040674 2 1 ack 40 ------- 2 3.0 0.0 0 37
r 0.040706 5 2 ack 40 ------- 3 5.0 4.0 0 38
+ 0.040706 2 1 ack 40 ------- 3 5.0 4.0 0 38
- 0.040706 2 1 ack 40 ------- 3 5.0 4.0 0 38
+ 0.040889 1 2 cbr 1000 ------- 2 1.0 2.0 46 50
- 0.040889 1 2 cbr 1000 ------- 2 1.0 2.0 46 50
r 0.041022 1 2 cbr 1000 ------- 2 1.0 2.0 34 36
+ 0.041778 1 2 cbr 1000 ------- 2 1.0 2.0 47 51
- 0.041778 1 2 cbr 1000 ------- 2 1.0 2.0 47 51
r 0.041911 1 2 cbr 1000 ------- 2 1.0 2.0 35 39
+ 0.042667 1 2 cbr 1000 ------- 2 1.0 2.0 48 52
- 0.042667 1 2 cbr 1000 ------- 2 1.0 2.0 48 52
r 0.0428 1 2 cbr 1000 ------- 2 1.0 2.0 36 40
+ 0.043556 1 2 cbr 1000 ------- 2 1.0 2.0 49 53
- 0.043556 1 2 cbr 1000 ------- 2 1.0 2.0 49 53
r 0.043689 1 2 cbr 1000 ------- 2 1.0 2.0 37 41
+ 0.044444 1 2 cbr 1000 ------- 2 1.0 2.0 50 54
- 0.044444 1 2 cbr 1000 ------- 2 1.0 2.0 50 54
r 0.044578 1 2 cbr 1000 ------- 2 1.0 2.0 38 42
+ 0.045333 1 2 cbr 1000 ------- 2 1.0 2.0 51 55
- 0.045333 1 2 cbr 1000 ------- 2 1.0 2.0 51 55
r 0.045467 1 2 cbr 1000 ------- 2 1.0 2.0 39 43
+ 0.046222 1 2 cbr 1000 ------- 2 1.0 2.0 52 56
- 0.046222 1 2 cbr 1000 ------- 2 1.0 2.0 52 56
r 0.046356 1 2 cbr 1000 ------- 2 1.0 2.0 40 44
+ 0.047111 1 2 cbr 1000 ------- 2 1.0 2.0 53 57
- 0.047111 1 2 cbr 1000 ------- 2 1.0 2.0 53 57
r 0.047244 1 2 cbr 1000 ------- 2 1.0 2.0 41 45
+ 0.048 1 2 cbr 1000 ------- 2 1.0 2.0 54 58
- 0.048 1 2 cbr 1000 ------- 2 1.0 2.0 54 58
r 0.048133 1 2 cbr 1000 ------- 2 1.0 2.0 42 46
+ 0.048889 1 2 cbr 1000 ------- 2 1.0 2.0 55 59
- 0.048889 1 2 cbr 1000 ------- 2 1.0 2.0 55 59
r 0.049022 1 2 cbr 1000 ------- 2 1.0 2.0 43 47
+ 0.049778 1 2 cbr 1000 ------- 2 1.0 2.0 56 60
- 0.049778 1 2 cbr 1000 ------- 2 1.0 2.0 56 60
r 0.049911 1 2 cbr 1000 ------- 2 1.0 2.0 44 48
+ 0.050667 1 2 cbr 1000 ------- 2 1.0 2.0 57 61
- 0.050667 1 2 cbr 1000 ------- 2 1.0 2.0 57 61
r 0.050706 2 1 ack 40 ------- 2 3.0 0.0 0 37
+ 0.050706 1 0 ack 40 ------- 2 3.0 0.0 0 37
- 0.050706 1 0 ack 40 ------- 2 3.0 0.0 0 37
r 0.050738 2 1 ack 40 ------- 3 5.0 4.0 0 38
+ 0.050738 1 4 ack 40 ------- 3 5.0 4.0 0 38
- 0.050738 1 4 ack 40 ------- 3 5.0 4.0 0 38
r 0.0508 1 2 cbr 1000 ------- 2 1.0 2.0 45 49
+ 0.051556 1 2 cbr 1000 ------- 2 1.0 2.0 58 62
- 0.051556 1 2 cbr 1000 ------- 2 1.0 2.0 58 62
r 0.051689 1 2 cbr 1000 ------- 2 1.0 2.0 46 50
+ 0.052444 1 2 cbr 1000 ------- 2 1.0 2.0 59 63
- 0.052444 1 2 cbr 1000 ------- 2 1.0 2.0 59 63
r 0.052578 1 2 cbr 1000 ------- 2 1.0 2.0 47 51
+ 0.053333 1 2 cbr 1000 ------- 2 1.0 2.0 60 64
- 0.053333 1 2 cbr 1000 ------- 2 1.0 2.0 60 64
r 0.053467 1 2 cbr 1000 ------- 2 1.0 2.0 48 52
+ 0.054222 1 2 cbr 1000 ------- 2 1.0 2.0 61 65
- 0.054222 1 2 cbr 1000 ------- 2 1.0 2.0 61 65
r 0.054356 1 2 cbr 1000 ------- 2 1.0 2.0 49 53
+ 0.055111 1 2 cbr 1000 ------- 2 1.0 2.0 62 66
- 0.055111 1 2 cbr 1000 ------- 2 1.0 2.0 62 66
r 0.055244 1 2 cbr 1000 ------- 2 1.0 2.0 50 54
+ 0.056 1 2 cbr 1000 ------- 2 1.0 2.0 63 67
- 0.056 1 2 cbr 1000 ------- 2 1.0 2.0 63 67
r 0.056133 1 2 cbr 1000 ------- 2 1.0 2.0 51 55
+ 0.056889 1 2 cbr 1000 ------- 2 1.0 2.0 64 68
- 0.056889 1 2 cbr 1000 ------- 2 1.0 2.0 64 68
r 0.057022 1 2 cbr 1000 ------- 2 1.0 2.0 52 56
+ 0.057778 1 2 cbr 1000 ------- 2 1.0 2.0 65 69
- 0.057778 1 2 cbr 1000 ------- 2 1.0 2.0 65 69
r 0.057911 1 2 cbr 1000 ------- 2 1.0 2.0 53 57
+ 0.058667 1 2 cbr 1000 ------- 2 1.0 2.0 66 70
- 0.058667 1 2 cbr 1000 ------- 2 1.0 2.0 66 70
r 0.0588 1 2 cbr 1000 ------- 2 1.0 2.0 54 58
+ 0.059556 1 2 cbr 1000 ------- 2 1.0 2.0 67 71
- 0.059556 1 2 cbr 1000 ------- 2 1.0 2.0 67 71
r 0.059689 1 2 cbr 1000 ------- 2 1.0 2.0 55 59
+ 0.060444 1 2 cbr 1000 ------- 2 1.0 2.0 68 72
- 0.060444 1 2 cbr 1000 ------- 2 1.0 2.0 68 72
r 0.060578 1 2 cbr 1000 ------- 2 1.0 2.0 56 60
r 0.060738 1 0 ack 40 ------- 2 3.0 0.0 0 37
+ 0.060738 0 1 tcp 1040 ------- 2 0.0 3.0 1 73
- 0.060738 0 1 tcp 1040 ------- 2 0.0 3.0 1 73
+ 0.060738 0 1 tcp 1040 ------- 2 0.0 3.0 2 74
r 0.06077 1 4 ack 40 ------- 3 5.0 4.0 0 38
+ 0.06077 4 1 tcp 1040 ------- 3 4.0 5.0 1 75
- 0.06077 4 1 tcp 1040 ------- 3 4.0 5.0 1 75
+ 0.06077 4 1 tcp 1040 ------- 3 4.0 5.0 2 76
+ 0.061333 1 2 cbr 1000 ------- 2 1.0 2.0 69 77
- 0.061333 1 2 cbr 1000 ------- 2 1.0 2.0 69 77
r 0.061467 1 2 cbr 1000 ------- 2 1.0 2.0 57 61
- 0.06157 0 1 tcp 1040 ------- 2 0.0 3.0 2 74
- 0.061602 4 1 tcp 1040 ------- 3 4.0 5.0 2 76
+ 0.062222 1 2 cbr 1000 ------- 2 1.0 2.0 70 78
- 0.062222 1 2 cbr 1000 ------- 2 1.0 2.0 70 78
r 0.062356 1 2 cbr 1000 ------- 2 1.0 2.0 58 62
+ 0.063111 1 2 cbr 1000 ------- 2 1.0 2.0 71 79
- 0.063111 1 2 cbr 1000 ------- 2 1.0 2.0 71 79
r 0.063244 1 2 cbr 1000 ------- 2 1.0 2.0 59 63
+ 0.064 1 2 cbr 1000 ------- 2 1.0 2.0 72 80
- 0.064 1 2 cbr 1000 ------- 2 1.0 2.0 72 80
r 0.064133 1 2 cbr 1000 ------- 2 1.0 2.0 60 64
+ 0.064889 1 2 cbr 1000 ------- 2 1.0 2.0 73 81
- 0.064889 1 2 cbr 1000 ------- 2 1.0 2.0 73 81
r 0.065022 1 2 cbr 1000 ------- 2 1.0 2.0 61 65
+ 0.065778 1 2 cbr 1000 ------- 2 1.0 2.0 74 82
- 0.065778 1 2 cbr 1000 ------- 2 1.0 2.0 74 82
r 0.065911 1 2 cbr 1000 ------- 2 1.0 2.0 62 66
+ 0.066667 1 2 cbr 1000 ------- 2 1.0 2.0 75 83
- 0.066667 1 2 cbr 1000 ------- 2 1.0 2.0 75 83
r 0.0668 1 2 cbr 1000 ------- 2 1.0 2.0 63 67
+ 0.067556 1 2 cbr 1000 ------- 2 1.0 2.0 76 84
- 0.067556 1 2 cbr 1000 ------- 2 1.0 2.0 76 84
r 0.067689 1 2 cbr 1000 ------- 2 1.0 2.0 64 68
+ 0.068444 1 2 cbr 1000 ------- 2 1.0 2.0 77 85
- 0.068444 1 2 cbr 1000 ------- 2 1.0 2.0 77 85
r 0.068578 1 2 cbr 1000 ------- 2 1.0 2.0 65 69
+ 0.069333 1 2 cbr 1000 ------- 2 1.0 2.0 78 86
- 0.069333 1 2 cbr 1000 ------- 2 1.0 2.0 78 86
r 0.069467 1 2 cbr 1000 ------- 2 1.0 2.0 66 70
+ 0.070222 1 2 cbr 1000 ------- 2 1.0 2.0 79 87
- 0.070222 1 2 cbr 1000 ------- 2 1.0 2.0 79 87
r 0.070356 1 2 cbr 1000 ------- 2 1.0 2.0 67 71
+ 0.071111 1 2 cbr 1000 ------- 2 1.0 2.0 80 88
- 0.071111 1 2 cbr 1000 ------- 2 1.0 2.0 80 88
r 0.071244 1 2 cbr 1000 ------- 2 1.0 2.0 68 72
r 0.07157 0 1 tcp 1040 ------- 2 0.0 3.0 1 73
+ 0.07157 1 2 tcp 1040 ------- 2 0.0 3.0 1 73
r 0.071602 4 1 tcp 1040 ------- 3 4.0 5.0 1 75
+ 0.071602 1 2 tcp 1040 ------- 3 4.0 5.0 1 75
- 0.071911 1 2 tcp 1040 ------- 2 0.0 3.0 1 73
+ 0.072 1 2 cbr 1000 ------- 2 1.0 2.0 81 89
r 0.072133 1 2 cbr 1000 ------- 2 1.0 2.0 69 77
r 0.072402 0 1 tcp 1040 ------- 2 0.0 3.0 2 74
+ 0.072402 1 2 tcp 1040 ------- 2 0.0 3.0 2 74
r 0.072434 4 1 tcp 1040 ------- 3 4.0 5.0 2 76
+ 0.072434 1 2 tcp 1040 ------- 3 4.0 5.0 2 76
- 0.072743 1 2 tcp 1040 ------- 3 4.0 5.0 1 75
+ 0.072889 1 2 cbr 1000 ------- 2 1.0 2.0 82 90
r 0.073022 1 2 cbr 1000 ------- 2 1.0 2.0 70 78
- 0.073575 1 2 cbr 1000 ------- 2 1.0 2.0 81 89
+ 0.073778 1 2 cbr 1000 ------- 2 1.0 2.0 83 91
r 0.073911 1 2 cbr 1000 ------- 2 1.0 2.0 71 79
- 0.074375 1 2 tcp 1040 ------- 2 0.0 3.0 2 74
+ 0.074667 1 2 cbr 1000 ------- 2 1.0 2.0 84 92
r 0.0748 1 2 cbr 1000 ------- 2 1.0 2.0 72 80
- 0.075207 1 2 tcp 1040 ------- 3 4.0 5.0 2 76
+ 0.075556 1 2 cbr 1000 ------- 2 1.0 2.0 85 93
r 0.075689 1 2 cbr 1000 ------- 2 1.0 2.0 73 81
- 0.076039 1 2 cbr 1000 ------- 2 1.0 2.0 82 90
+ 0.076444 1 2 cbr 1000 ------- 2 1.0 2.0 86 94
r 0.076578 1 2 cbr 1000 ------- 2 1.0 2.0 74 82
- 0.076839 1 2 cbr 1000 ------- 2 1.0 2.0 83 91
+ 0.077333 1 2 cbr 1000 ------- 2 1.0 2.0 87 95
r 0.077467 1 2 cbr 1000 ------- 2 1.0 2.0 75 83
- 0.077639 1 2 cbr 1000 ------- 2 1.0 2.0 84 92
+ 0.078222 1 2 cbr 1000 ------- 2 1.0 2.0 88 96
r 0.078356 1 2 cbr 1000 ------- 2 1.0 2.0 76 84
- 0.078439 1 2 cbr 1000 ------- 2 1.0 2.0 85 93
+ 0.079111 1 2 cbr 1000 ------- 2 1.0 2.0 89 97
- 0.079239 1 2 cbr 1000 ------- 2 1.0 2.0 86 94
r 0.079244 1 2 cbr 1000 ------- 2 1.0 2.0 77 85
+ 0.08 1 2 cbr 1000 ------- 2 1.0 2.0 90 98
- 0.080039 1 2 cbr 1000 ------- 2 1.0 2.0 87 95
r 0.080133 1 2 cbr 1000 ------- 2 1.0 2.0 78 86
- 0.080839 1 2 cbr 1000 ------- 2 1.0 2.0 88 96
+ 0.080889 1 2 cbr 1000 ------- 2 1.0 2.0 91 99
r 0.081022 1 2 cbr 1000 ------- 2 1.0 2.0 79 87
- 0.081639 1 2 cbr 1000 ------- 2 1.0 2.0 89 97
+ 0.081778 1 2 cbr 1000 ------- 2 1.0 2.0 92 100
r 0.081911 1 2 cbr 1000 ------- 2 1.0 2.0 80 88
- 0.082439 1 2 cbr 1000 ------- 2 1.0 2.0 90 98
+ 0.082667 1 2 cbr 1000 ------- 2 1.0 2.0 93 101
r 0.082743 1 2 tcp 1040 ------- 2 0.0 3.0 1 73
+ 0.082743 2 3 tcp 1040 ------- 2 0.0 3.0 1 73
- 0.082743 2 3 tcp 1040 ------- 2 0.0 3.0 1 73
- 0.083239 1 2 cbr 1000 ------- 2 1.0 2.0 91 99
+ 0.083556 1 2 cbr 1000 ------- 2 1.0 2.0 94 102
r 0.083575 1 2 tcp 1040 ------- 3 4.0 5.0 1 75
+ 0.083575 2 5 tcp 1040 ------- 3 4.0 5.0 1 75
- 0.083575 2 5 tcp 1040 ------- 3 4.0 5.0 1 75
- 0.084039 1 2 cbr 1000 ------- 2 1.0 2.0 92 100
r 0.084375 1 2 cbr 1000 ------- 2 1.0 2.0 81 89
+ 0.084444 1 2 cbr 1000 ------- 2 1.0 2.0 95 103
- 0.084839 1 2 cbr 1000 ------- 2 1.0 2.0 93 101
r 0.085207 1 2 tcp 1040 ------- 2 0.0 3.0 2 74
+ 0.085207 2 3 tcp 1040 ------- 2 0.0 3.0 2 74
- 0.085207 2 3 tcp 1040 ------- 2 0.0 3.0 2 74
+ 0.085333 1 2 cbr 1000 ------- 2 1.0 2.0 96 104
- 0.085639 1 2 cbr 1000 ------- 2 1.0 2.0 94 102
r 0.086039 1 2 tcp 1040 ------- 3 4.0 5.0 2 76
+ 0.086039 2 5 tcp 1040 ------- 3 4.0 5.0 2 76
- 0.086039 2 5 tcp 1040 ------- 3 4.0 5.0 2 76
+ 0.086222 1 2 cbr 1000 ------- 2 1.0 2.0 97 105
- 0.086439 1 2 cbr 1000 ------- 2 1.0 2.0 95 103
r 0.086839 1 2 cbr 1000 ------- 2 1.0 2.0 82 90
+ 0.087111 1 2 cbr 1000 ------- 2 1.0 2.0 98 106
- 0.087239 1 2 cbr 1000 ------- 2 1.0 2.0 96 104
r 0.087639 1 2 cbr 1000 ------- 2 1.0 2.0 83 91
+ 0.088 1 2 cbr 1000 ------- 2 1.0 2.0 99 107
- 0.088039 1 2 cbr 1000 ------- 2 1.0 2.0 97 105
r 0.088439 1 2 cbr 1000 ------- 2 1.0 2.0 84 92
- 0.088839 1 2 cbr 1000 ------- 2 1.0 2.0 98 106
+ 0.088889 1 2 cbr 1000 ------- 2 1.0 2.0 100 108
r 0.089239 1 2 cbr 1000 ------- 2 1.0 2.0 85 93
- 0.089639 1 2 cbr 1000 ------- 2 1.0 2.0 99 107
+ 0.089778 1 2 cbr 1000 ------- 2 1.0 2.0 101 109
r 0.090039 1 2 cbr 1000 ------- 2 1.0 2.0 86 94
- 0.090439 1 2 cbr 1000 ------- 2 1.0 2.0 100 108
+ 0.090667 1 2 cbr 1000 ------- 2 1.0 2.0 102 110
r 0.090839 1 2 cbr 1000 ------- 2 1.0 2.0 87 95
- 0.091239 1 2 cbr 1000 ------- 2 1.0 2.0 101 109
+ 0.091556 1 2 cbr 1000 ------- 2 1.0 2.0 103 111
r 0.091639 1 2 cbr 1000 ------- 2 1.0 2.0 88 96
- 0.092039 1 2 cbr 1000 ------- 2 1.0 2.0 102 110
r 0.092439 1 2 cbr 1000 ------- 2 1.0 2.0 89 97
+ 0.092444 1 2 cbr 1000 ------- 2 1.0 2.0 104 112
- 0.092839 1 2 cbr 1000 ------- 2 1.0 2.0 103 111
r 0.093239 1 2 cbr 1000 ------- 2 1.0 2.0 90 98
+ 0.093333 1 2 cbr 1000 ------- 2 1.0 2.0 105 113
r 0.093575 2 3 tcp 1040 ------- 2 0.0 3.0 1 73
+ 0.093575 3 2 ack 40 ------- 2 3.0 0.0 1 114
- 0.093575 3 2 ack 40 ------- 2 3.0 0.0 1 114
- 0.093639 1 2 cbr 1000 ------- 2 1.0 2.0 104 112
r 0.094039 1 2 cbr 1000 ------- 2 1.0 2.0 91 99
+ 0.094222 1 2 cbr 1000 ------- 2 1.0 2.0 106 115
r 0.094407 2 5 tcp 1040 ------- 3 4.0 5.0 1 75
+ 0.094407 5 2 ack 40 ------- 3 5.0 4.0 1 116
- 0.094407 5 2 ack 40 ------- 3 5.0 4.0 1 116
- 0.094439 1 2 cbr 1000 ------- 2 1.0 2.0 105 113
r 0.094839 1 2 cbr 1000 ------- 2 1.0 2.0 92 100
+ 0.095111 1 2 cbr 1000 ------- 2 1.0 2.0 107 117
- 0.095239 1 2 cbr 1000 ------- 2 1.0 2.0 106 115
r 0.095639 1 2 cbr 1000 ------- 2 1.0 2.0 93 101
+ 0.096 1 2 cbr 1000 ------- 2 1.0 2.0 108 118
- 0.096039 1 2 cbr 1000 ------- 2 1.0 2.0 107 117
r 0.096039 2 3 tcp 1040 ------- 2 0.0 3.0 2 74
+ 0.096039 3 2 ack 40 ------- 2 3.0 0.0 2 119
- 0.096039 3 2 ack 40 ------- 2 3.0 0.0 2 119
r 0.096439 1 2 cbr 1000 ------- 2 1.0 2.0 94 102
- 0.096839 1 2 cbr 1000 ------- 2 1.0 2.0 108 118
r 0.096871 2 5 tcp 1040 ------- 3 4.0 5.0 2 76
+ 0.096871 5 2 ack 40 ------- 3 5.0 4.0 2 120
- 0.096871 5 2 ack 40 ------- 3 5.0 4.0 2 120
+ 0.096889 1 2 cbr 1000 ------- 2 1.0 2.0 109 121
r 0.097239 1 2 cbr 1000 ------- 2 1.0 2.0 95 103
- 0.097639 1 2 cbr 1000 ------- 2 1.0 2.0 109 121
+ 0.097778 1 2 cbr 1000 ------- 2 1.0 2.0 110 122
r 0.098039 1 2 cbr 1000 ------- 2 1.0 2.0 96 104
- 0.098439 1 2 cbr 1000 ------- 2 1.0 2.0 110 122
+ 0.098667 1 2 cbr 1000 ------- 2 1.0 2.0 111 123
r 0.098839 1 2 cbr 1000 ------- 2 1.0 2.0 97 105
- 0.099239 1 2 cbr 1000 ------- 2 1.0 2.0 111 123
+ 0.099556 1 2 cbr 1000 ------- 2 1.0 2.0 112 124
r 0.099639 1 2 cbr 1000 ------- 2 1.0 2.0 98 106
- 0.100039 1 2 cbr 1000 ------- 2 1.0 2.0 112 124
r 0.100439 1 2 cbr 1000 ------- 2 1.0 2.0 99 107
+ 0.100444 1 2 cbr 1000 ------- 2 1.0 2.0 113 125
- 0.100839 1 2 cbr 1000 ------- 2 1.0 2.0 113 125
r 0.101239 1 2 cbr 1000 ------- 2 1.0 2.0 100 108
+ 0.101333 1 2 cbr 1000 ------- 2 1.0 2.0 114 126
- 0.101639 1 2 cbr 1000 ------- 2 1.0 2.0 114 126
r 0.102039 1 2 cbr 1000 ------- 2 1.0 2.0 101 109
+ 0.102222 1 2 cbr 1000 ------- 2 1.0 2.0 115 127
- 0.102439 1 2 cbr 1000 ------- 2 1.0 2.0 115 127
r 0.102839 1 2 cbr 1000 ------- 2 1.0 2.0 102 110
+ 0.103111 1 2 cbr 1000 ------- 2 1.0 2.0 116 128
- 0.103239 1 2 cbr 1000 ------- 2 1.0 2.0 116 128
r 0.103607 3 2 ack 40 ------- 2 3.0 0.0 1 114
+ 0.103607 2 1 ack 40 ------- 2 3.0 0.0 1 114
- 0.103607 2 1 ack 40 ------- 2 3.0 0.0 1 114
r 0.103639 1 2 cbr 1000 ------- 2 1.0 2.0 103 111
+ 0.104 1 2 cbr 1000 ------- 2 1.0 2.0 117 129
- 0.104039 1 2 cbr 1000 ------- 2 1.0 2.0 117 129
r 0.104439 1 2 cbr 1000 ------- 2 1.0 2.0 104 112
r 0.104439 5 2 ack 40 ------- 3 5.0 4.0 1 116
+ 0.104439 2 1 ack 40 ------- 3 5.0 4.0 1 116
- 0.104439 2 1 ack 40 ------- 3 5.0 4.0 1 116
+ 0.104889 1 2 cbr 1000 ------- 2 1.0 2.0 118 130
- 0.104889 1 2 cbr 1000 ------- 2 1.0 2.0 118 130
r 0.105239 1 2 cbr 1000 ------- 2 1.0 2.0 105 113
+ 0.105778 1 2 cbr 1000 ------- 2 1.0 2.0 119 131
- 0.105778 1 2 cbr 1000 ------- 2 1.0 2.0 119 131
r 0.106039 1 2 cbr 1000 ------- 2 1.0 2.0 106 115
r 0.106071 3 2 ack 40 ------- 2 3.0 0.0 2 119
+ 0.106071 2 1 ack 40 ------- 2 3.0 0.0 2 119
- 0.106071 2 1 ack 40 ------- 2 3.0 0.0 2 119
+ 0.106667 1 2 cbr 1000 ------- 2 1.0 2.0 120 132
- 0.106667 1 2 cbr 1000 ------- 2 1.0 2.0 120 132
r 0.106839 1 2 cbr 1000 ------- 2 1.0 2.0 107 117
r 0.106903 5 2 ack 40 ------- 3 5.0 4.0 2 120
+ 0.106903 2 1 ack 40 ------- 3 5.0 4.0 2 120
- 0.106903 2 1 ack 40 ------- 3 5.0 4.0 2 120
+ 0.107556 1 2 cbr 1000 ------- 2 1.0 2.0 121 133
- 0.107556 1 2 cbr 1000 ------- 2 1.0 2.0 121 133
r 0.107639 1 2 cbr 1000 ------- 2 1.0 2.0 108 118
r 0.108439 1 2 cbr 1000 ------- 2 1.0 2.0 109 121
+ 0.108444 1 2 cbr 1000 ------- 2 1.0 2.0 122 134
- 0.108444 1 2 cbr 1000 ------- 2 1.0 2.0 122 134
r 0.109239 1 2 cbr 1000 ------- 2 1.0 2.0 110 122
+ 0.109333 1 2 cbr 1000 ------- 2 1.0 2.0 123 135
- 0.109333 1 2 cbr 1000 ------- 2 1.0 2.0 123 135
r 0.110039 1 2 cbr 1000 ------- 2 1.0 2.0 111 123
+ 0.110222 1 2 cbr 1000 ------- 2 1.0 2.0 124 136
- 0.110222 1 2 cbr 1000 ------- 2 1.0 2.0 124 136
r 0.110839 1 2 cbr 1000 ------- 2 1.0 2.0 112 124
+ 0.111111 1 2 cbr 1000 ------- 2 1.0 2.0 125 137
- 0.111111 1 2 cbr 1000 ------- 2 1.0 2.0 125 137
r 0.111639 1 2 cbr 1000 ------- 2 1.0 2.0 113 125
+ 0.112 1 2 cbr 1000 ------- 2 1.0 2.0 126 138
- 0.112 1 2 cbr 1000 ------- 2 1.0 2.0 126 138
r 0.112439 1 2 cbr 1000 ------- 2 1.0 2.0 114 126
+ 0.112889 1 2 cbr 1000 ------- 2 1.0 2.0 127 139
- 0.112889 1 2 cbr 1000 ------- 2 1.0 2.0 127 139
r 0.113239 1 2 cbr 1000 ------- 2 1.0 2.0 115 127
r 0.113639 2 1 ack 40 ------- 2 3.0 0.0 1 114
+ 0.113639 1 0 ack 40 ------- 2 3.0 0.0 1 114
- 0.113639 1 0 ack 40 ------- 2 3.0 0.0 1 114
+ 0.113778 1 2 cbr 1000 ------- 2 1.0 2.0 128 140
- 0.113778 1 2 cbr 1000 ------- 2 1.0 2.0 128 140
r 0.114039 1 2 cbr 1000 ------- 2 1.0 2.0 116 128
r 0.114471 2 1 ack 40 ------- 3 5.0 4.0 1 116
+ 0.114471 1 4 ack 40 ------- 3 5.0 4.0 1 116
- 0.114471 1 4 ack 40 ------- 3 5.0 4.0 1 116
+ 0.114667 1 2 cbr 1000 ------- 2 1.0 2.0 129 141
- 0.114667 1 2 cbr 1000 ------- 2 1.0 2.0 129 141
r 0.114839 1 2 cbr 1000 ------- 2 1.0 2.0 117 129
+ 0.115556 1 2 cbr 1000 ------- 2 1.0 2.0 130 142
- 0.115556 1 2 cbr 1000 ------- 2 1.0 2.0 130 142
r 0.115689 1 2 cbr 1000 ------- 2 1.0 2.0 118 130
r 0.116103 2 1 ack 40 ------- 2 3.0 0.0 2 119
+ 0.116103 1 0 ack 40 ------- 2 3.0 0.0 2 119
- 0.116103 1 0 ack 40 ------- 2 3.0 0.0 2 119
+ 0.116444 1 2 cbr 1000 ------- 2 1.0 2.0 131 143
- 0.116444 1 2 cbr 1000 ------- 2 1.0 2.0 131 143
r 0.116578 1 2 cbr 1000 ------- 2 1.0 2.0 119 131
r 0.116935 2 1 ack 40 ------- 3 5.0 4.0 2 120
+ 0.116935 1 4 ack 40 ------- 3 5.0 4.0 2 120
- 0.116935 1 4 ack 40 ------- 3 5.0 4.0 2 120
+ 0.117333 1 2 cbr 1000 ------- 2 1.0 2.0 132 144
- 0.117333 1 2 cbr 1000 ------- 2 1.0 2.0 132 144
r 0.117467 1 2 cbr 1000 ------- 2 1.0 2.0 120 132
+ 0.118222 1 2 cbr 1000 ------- 2 1.0 2.0 133 145
- 0.118222 1 2 cbr 1000 ------- 2 1.0 2.0 133 145
r 0.118356 1 2 cbr 1000 ------- 2 1.0 2.0 121 133
+ 0.119111 1 2 cbr 1000 ------- 2 1.0 2.0 134 146
- 0.119111 1 2 cbr 1000 ------- 2 1.0 2.0 134 146
r 0.119244 1 2 cbr 1000 ------- 2 1.0 2.0 122 134
+ 0.12 1 2 cbr 1000 ------- 2 1.0 2.0 135 147
- 0.12 1 2 cbr 1000 ------- 2 1.0 2.0 135 147
r 0.120133 1 2 cbr 1000 ------- 2 1.0 2.0 123 135
+ 0.120889 1 2 cbr 1000 ------- 2 1.0 2.0 136 148
- 0.120889 1 2 cbr 1000 ------- 2 1.0 2.0 136 148
r 0.121022 1 2 cbr 1000 ------- 2 1.0 2.0 124 136
+ 0.121778 1 2 cbr 1000 ------- 2 1.0 2.0 137 149
- 0.121778 1 2 cbr 1000 ------- 2 1.0 2.0 137 149
r 0.121911 1 2 cbr 1000 ------- 2 1.0 2.0 125 137
+ 0.122667 1 2 cbr 1000 ------- 2 1.0 2.0 138 150
- 0.122667 1 2 cbr 1000 ------- 2 1.0 2.0 138 150
r 0.1228 1 2 cbr 1000 ------- 2 1.0 2.0 126 138
+ 0.123556 1 2 cbr 1000 ------- 2 1.0 2.0 139 151
- 0.123556 1 2 cbr 1000 ------- 2 1.0 2.0 139 151
r 0.123671 1 0 ack 40 ------- 2 3.0 0.0 1 114
+ 0.123671 0 1 tcp 1040 ------- 2 0.0 3.0 3 152
- 0.123671 0 1 tcp 1040 ------- 2 0.0 3.0 3 152
+ 0.123671 0 1 tcp 1040 ------- 2 0.0 3.0 4 153
r 0.123689 1 2 cbr 1000 ------- 2 1.0 2.0 127 139
+ 0.124444 1 2 cbr 1000 ------- 2 1.0 2.0 140 154
- 0.124444 1 2 cbr 1000 ------- 2 1.0 2.0 140 154
r 0.124503 1 4 ack 40 ------- 3 5.0 4.0 1 116
+ 0.124503 4 1 tcp 1040 ------- 3 4.0 5.0 3 155
- 0.124503 4 1 tcp 1040 ------- 3 4.0 5.0 3 155
+ 0.124503 4 1 tcp 1040 ------- 3 4.0 5.0 4 156
- 0.124503 0 1 tcp 1040 ------- 2 0.0 3.0 4 153
r 0.124578 1 2 cbr 1000 ------- 2 1.0 2.0 128 140
+ 0.125333 1 2 cbr 1000 ------- 2 1.0 2.0 141 157
- 0.125333 1 2 cbr 1000 ------- 2 1.0 2.0 141 157
- 0.125335 4 1 tcp 1040 ------- 3 4.0 5.0 4 156
r 0.125467 1 2 cbr 1000 ------- 2 1.0 2.0 129 141
r 0.126135 1 0 ack 40 ------- 2 3.0 0.0 2 119
+ 0.126135 0 1 tcp 1040 ------- 2 0.0 3.0 5 158
- 0.126135 0 1 tcp 1040 ------- 2 0.0 3.0 5 158
+ 0.126135 0 1 tcp 1040 ------- 2 0.0 3.0 6 159
+ 0.126222 1 2 cbr 1000 ------- 2 1.0 2.0 142 160
- 0.126222 1 2 cbr 1000 ------- 2 1.0 2.0 142 160
r 0.126356 1 2 cbr 1000 ------- 2 1.0 2.0 130 142
r 0.126967 1 4 ack 40 ------- 3 5.0 4.0 2 120
+ 0.126967 4 1 tcp 1040 ------- 3 4.0 5.0 5 161
- 0.126967 4 1 tcp 1040 ------- 3 4.0 5.0 5 161
+ 0.126967 4 1 tcp 1040 ------- 3 4.0 5.0 6 162
- 0.126967 0 1 tcp 1040 ------- 2 0.0 3.0 6 159
+ 0.127111 1 2 cbr 1000 ------- 2 1.0 2.0 143 163
- 0.127111 1 2 cbr 1000 ------- 2 1.0 2.0 143 163
r 0.127244 1 2 cbr 1000 ------- 2 1.0 2.0 131 143
- 0.127799 4 1 tcp 1040 ------- 3 4.0 5.0 6 162
+ 0.128 1 2 cbr 1000 ------- 2 1.0 2.0 144 164
- 0.128 1 2 cbr 1000 ------- 2 1.0 2.0 144 164
r 0.128133 1 2 cbr 1000 ------- 2 1.0 2.0 132 144
+ 0.128889 1 2 cbr 1000 ------- 2 1.0 2.0 145 165
- 0.128889 1 2 cbr 1000 ------- 2 1.0 2.0 145 165
r 0.129022 1 2 cbr 1000 ------- 2 1.0 2.0 133 145
+ 0.129778 1 2 cbr 1000 ------- 2 1.0 2.0 146 166
- 0.129778 1 2 cbr 1000 ------- 2 1.0 2.0 146 166
r 0.129911 1 2 cbr 1000 ------- 2 1.0 2.0 134 146
+ 0.130667 1 2 cbr 1000 ------- 2 1.0 2.0 147 167
- 0.130667 1 2 cbr 1000 ------- 2 1.0 2.0 147 167
r 0.1308 1 2 cbr 1000 ------- 2 1.0 2.0 135 147
+ 0.131556 1 2 cbr 1000 ------- 2 1.0 2.0 148 168
- 0.131556 1 2 cbr 1000 ------- 2 1.0 2.0 148 168
r 0.131689 1 2 cbr 1000 ------- 2 1.0 2.0 136 148
+ 0.132444 1 2 cbr 1000 ------- 2 1.0 2.0 149 169
- 0.132444 1 2 cbr 1000 ------- 2 1.0 2.0 149 169
r 0.132578 1 2 cbr 1000 ------- 2 1.0 2.0 137 149
+ 0.133333 1 2 cbr 1000 ------- 2 1.0 2.0 150 170
- 0.133333 1 2 cbr 1000 ------- 2 1.0 2.0 150 170
r 0.133467 1 2 cbr 1000 ------- 2 1.0 2.0 138 150
+ 0.134222 1 2 cbr 1000 ------- 2 1.0 2.0 151 171
- 0.134222 1 2 cbr 1000 ------- 2 1.0 2.0 151 171
r 0.134356 1 2 cbr 1000 ------- 2 1.0 2.0 139 151
r 0.134503 0 1 tcp 1040 ------- 2 0.0 3.0 3 152
+ 0.134503 1 2 tcp 1040 ------- 2 0.0 3.0 3 152
- 0.135022 1 2 tcp 1040 ------- 2 0.0 3.0 3 152
+ 0.135111 1 2 cbr 1000 ------- 2 1.0 2.0 152 172
r 0.135244 1 2 cbr 1000 ------- 2 1.0 2.0 140 154
r 0.135335 4 1 tcp 1040 ------- 3 4.0 5.0 3 155
+ 0.135335 1 2 tcp 1040 ------- 3 4.0 5.0 3 155
r 0.135335 0 1 tcp 1040 ------- 2 0.0 3.0 4 153
+ 0.135335 1 2 tcp 1040 ------- 2 0.0 3.0 4 153
- 0.135854 1 2 cbr 1000 ------- 2 1.0 2.0 152 172
+ 0.136 1 2 cbr 1000 ------- 2 1.0 2.0 153 173
r 0.136133 1 2 cbr 1000 ------- 2 1.0 2.0 141 157
r 0.136167 4 1 tcp 1040 ------- 3 4.0 5.0 4 156
+ 0.136167 1 2 tcp 1040 ------- 3 4.0 5.0 4 156
- 0.136654 1 2 tcp 1040 ------- 3 4.0 5.0 3 155
+ 0.136889 1 2 cbr 1000 ------- 2 1.0 2.0 154 174
r 0.136967 0 1 tcp 1040 ------- 2 0.0 3.0 5 158
+ 0.136967 1 2 tcp 1040 ------- 2 0.0 3.0 5 158
r 0.137022 1 2 cbr 1000 ------- 2 1.0 2.0 142 160
- 0.137486 1 2 tcp 1040 ------- 2 0.0 3.0 4 153
+ 0.137778 1 2 cbr 1000 ------- 2 1.0 2.0 155 175
r 0.137799 4 1 tcp 1040 ------- 3 4.0 5.0 5 161
+ 0.137799 1 2 tcp 1040 ------- 3 4.0 5.0 5 161
r 0.137799 0 1 tcp 1040 ------- 2 0.0 3.0 6 159
+ 0.137799 1 2 tcp 1040 ------- 2 0.0 3.0 6 159
r 0.137911 1 2 cbr 1000 ------- 2 1.0 2.0 143 163
- 0.138318 1 2 cbr 1000 ------- 2 1.0 2.0 153 173
r 0.138631 4 1 tcp 1040 ------- 3 4.0 5.0 6 162
+ 0.138631 1 2 tcp 1040 ------- 3 4.0 5.0 6 162
+ 0.138667 1 2 cbr 1000 ------- 2 1.0 2.0 156 176
r 0.1388 1 2 cbr 1000 ------- 2 1.0 2.0 144 164
- 0.139118 1 2 tcp 1040 ------- 3 4.0 5.0 4 156
+ 0.139556 1 2 cbr 1000 ------- 2 1.0 2.0 157 177
r 0.139689 1 2 cbr 1000 ------- 2 1.0 2.0 145 165
- 0.13995 1 2 cbr 1000 ------- 2 1.0 2.0 154 174
+ 0.140444 1 2 cbr 1000 ------- 2 1.0 2.0 158 178
r 0.140578 1 2 cbr 1000 ------- 2 1.0 2.0 146 166
- 0.14075 1 2 tcp 1040 ------- 2 0.0 3.0 5 158
+ 0.141333 1 2 cbr 1000 ------- 2 1.0 2.0 159 179
r 0.141467 1 2 cbr 1000 ------- 2 1.0 2.0 147 167
- 0.141582 1 2 cbr 1000 ------- 2 1.0 2.0 155 175
+ 0.142222 1 2 cbr 1000 ------- 2 1.0 2.0 160 180
r 0.142356 1 2 cbr 1000 ------- 2 1.0 2.0 148 168
- 0.142382 1 2 tcp 1040 ------- 3 4.0 5.0 5 161
+ 0.143111 1 2 cbr 1000 ------- 2 1.0 2.0 161 181
- 0.143214 1 2 tcp 1040 ------- 2 0.0 3.0 6 159
r 0.143244 1 2 cbr 1000 ------- 2 1.0 2.0 149 169
+ 0.144 1 2 cbr 1000 ------- 2 1.0 2.0 162 182
- 0.144046 1 2 tcp 1040 ------- 3 4.0 5.0 6 162
r 0.144133 1 2 cbr 1000 ------- 2 1.0 2.0 150 170
- 0.144878 1 2 cbr 1000 ------- 2 1.0 2.0 156 176
+ 0.144889 1 2 cbr 1000 ------- 2 1.0 2.0 163 183
r 0.145022 1 2 cbr 1000 ------- 2 1.0 2.0 151 171
- 0.145678 1 2 cbr 1000 ------- 2 1.0 2.0 157 177
+ 0.145778 1 2 cbr 1000 ------- 2 1.0 2.0 164 184
r 0.145854 1 2 tcp 1040 ------- 2 0.0 3.0 3 152
+ 0.145854 2 3 tcp 1040 ------- 2 0.0 3.0 3 152
- 0.145854 2 3 tcp 1040 ------- 2 0.0 3.0 3 152