+ 0 1 2 cbr 1000 ------- 2 1.0 2.0 0 0
- 0 1 2 cbr 1000 ------- 2 1.0 2.0 0 0
+ 0 0 1 tcp 1000 ------- 2 0.0 3.0 0 1
- 0 0 1 tcp 1000 ------- 2 0.0 3.0 0 1
+ 0 4 1 tcp 1000 ------- 3 4.0 5.0 0 2
- 0 4 1 tcp 1000 ------- 3 4.0 5.0 0 2
+ 0.000889 1 2 cbr 1000 ------- 2 1.0 2.0 1 3
- 0.000889 1 2 cbr 1000 ------- 2 1.0 2.0 1 3
+ 0.001778 1 2 cbr 1000 ------- 2 1.0 2.0 2 4
- 0.001778 1 2 cbr 1000 ------- 2 1.0 2.0 2 4
+ 0.002667 1 2 cbr 1000 ------- 2 1.0 2.0 3 5
- 0.002667 1 2 cbr 1000 ------- 2 1.0 2.0 3 5
+ 0.003556 1 2 cbr 1000 ------- 2 1.0 2.0 4 6
- 0.003556 1 2 cbr 1000 ------- 2 1.0 2.0 4 6
+ 0.004444 1 2 cbr 1000 ------- 2 1.0 2.0 5 7
- 0.004444 1 2 cbr 1000 ------- 2 1.0 2.0 5 7
+ 0.005333 1 2 cbr 1000 ------- 2 1.0 2.0 6 8
- 0.005333 1 2 cbr 1000 ------- 2 1.0 2.0 6 8
+ 0.006222 1 2 cbr 1000 ------- 2 1.0 2.0 7 9
- 0.006222 1 2 cbr 1000 ------- 2 1.0 2.0 7 9
+ 0.007111 1 2 cbr 1000 ------- 2 1.0 2.0 8 10
- 0.007111 1 2 cbr 1000 ------- 2 1.0 2.0 8 10
+ 0.008 1 2 cbr 1000 ------- 2 1.0 2.0 9 11
- 0.008 1 2 cbr 1000 ------- 2 1.0 2.0 9 11
+ 0.008889 1 2 cbr 1000 ------- 2 1.0 2.0 10 12
- 0.008889 1 2 cbr 1000 ------- 2 1.0 2.0 10 12
+ 0.009778 1 2 cbr 1000 ------- 2 1.0 2.0 11 13
- 0.009778 1 2 cbr 1000 ------- 2 1.0 2.0 11 13
+ 0.010667 1 2 cbr 1000 ------- 2 1.0 2.0 12 14
- 0.010667 1 2 cbr 1000 ------- 2 1.0 2.0 12 14
r 0.0108 1 2 cbr 1000 ------- 2 1.0 2.0 0 0
r 0.0108 0 1 tcp 1000 ------- 2 0.0 3.0 0 1
+ 0.0108 1 2 tcp 1000 ------- 2 0.0 3.0 0 1
r 0.0108 4 1 tcp 1000 ------- 3 4.0 5.0 0 2
+ 0.0108 1 2 tcp 1000 ------- 3 4.0 5.0 0 2
- 0.011467 1 2 tcp 1000 ------- 2 0.0 3.0 0 1
+ 0.011556 1 2 cbr 1000 ------- 2 1.0 2.0 13 15
r 0.011689 1 2 cbr 1000 ------- 2 1.0 2.0 1 3
- 0.012267 1 2 tcp 1000 ------- 3 4.0 5.0 0 2
+ 0.012444 1 2 cbr 1000 ------- 2 1.0 2.0 14 16
r 0.012578 1 2 cbr 1000 ------- 2 1.0 2.0 2 4
- 0.013067 1 2 cbr 1000 ------- 2 1.0 2.0 13 15
+ 0.013333 1 2 cbr 1000 ------- 2 1.0 2.0 15 17
r 0.013467 1 2 cbr 1000 ------- 2 1.0 2.0 3 5
- 0.013867 1 2 cbr 1000 ------- 2 1.0 2.0 14 16
+ 0.014222 1 2 cbr 1000 ------- 2 1.0 2.0 16 18
r 0.014356 1 2 cbr 1000 ------- 2 1.0 2.0 4 6
- 0.014667 1 2 cbr 1000 ------- 2 1.0 2.0 15 17
+ 0.015111 1 2 cbr 1000 ------- 2 1.0 2.0 17 19
r 0.015244 1 2 cbr 1000 ------- 2 1.0 2.0 5 7
- 0.015467 1 2 cbr 1000 ------- 2 1.0 2.0 16 18
+ 0.016 1 2 cbr 1000 ------- 2 1.0 2.0 18 20
r 0.016133 1 2 cbr 1000 ------- 2 1.0 2.0 6 8
- 0.016267 1 2 cbr 1000 ------- 2 1.0 2.0 17 19
+ 0.016889 1 2 cbr 1000 ------- 2 1.0 2.0 19 21
r 0.017022 1 2 cbr 1000 ------- 2 1.0 2.0 7 9
- 0.017067 1 2 cbr 1000 ------- 2 1.0 2.0 18 20
+ 0.017778 1 2 cbr 1000 ------- 2 1.0 2.0 20 22
- 0.017867 1 2 cbr 1000 ------- 2 1.0 2.0 19 21
r 0.017911 1 2 cbr 1000 ------- 2 1.0 2.0 8 10
- 0.018667 1 2 cbr 1000 ------- 2 1.0 2.0 20 22
+ 0.018667 1 2 cbr 1000 ------- 2 1.0 2.0 21 23
r 0.0188 1 2 cbr 1000 ------- 2 1.0 2.0 9 11
- 0.019467 1 2 cbr 1000 ------- 2 1.0 2.0 21 23
+ 0.019556 1 2 cbr 1000 ------- 2 1.0 2.0 22 24
r 0.019689 1 2 cbr 1000 ------- 2 1.0 2.0 10 12
- 0.020267 1 2 cbr 1000 ------- 2 1.0 2.0 22 24
+ 0.020444 1 2 cbr 1000 ------- 2 1.0 2.0 23 25
r 0.020578 1 2 cbr 1000 ------- 2 1.0 2.0 11 13
- 0.021067 1 2 cbr 1000 ------- 2 1.0 2.0 23 25
+ 0.021333 1 2 cbr 1000 ------- 2 1.0 2.0 24 26
r 0.021467 1 2 cbr 1000 ------- 2 1.0 2.0 12 14
- 0.021867 1 2 cbr 1000 ------- 2 1.0 2.0 24 26
+ 0.022222 1 2 cbr 1000 ------- 2 1.0 2.0 25 27
r 0.022267 1 2 tcp 1000 ------- 2 0.0 3.0 0 1
+ 0.022267 2 3 tcp 1000 ------- 2 0.0 3.0 0 1
- 0.022267 2 3 tcp 1000 ------- 2 0.0 3.0 0 1
- 0.022667 1 2 cbr 1000 ------- 2 1.0 2.0 25 27
r 0.023067 1 2 tcp 1000 ------- 3 4.0 5.0 0 2
+ 0.023067 2 5 tcp 1000 ------- 3 4.0 5.0 0 2
- 0.023067 2 5 tcp 1000 ------- 3 4.0 5.0 0 2
+ 0.023111 1 2 cbr 1000 ------- 2 1.0 2.0 26 28
- 0.023467 1 2 cbr 1000 ------- 2 1.0 2.0 26 28
r 0.023867 1 2 cbr 1000 ------- 2 1.0 2.0 13 15
+ 0.024 1 2 cbr 1000 ------- 2 1.0 2.0 27 29
- 0.024267 1 2 cbr 1000 ------- 2 1.0 2.0 27 29
r 0.024667 1 2 cbr 1000 ------- 2 1.0 2.0 14 16
+ 0.024889 1 2 cbr 1000 ------- 2 1.0 2.0 28 30
- 0.025067 1 2 cbr 1000 ------- 2 1.0 2.0 28 30
r 0.025467 1 2 cbr 1000 ------- 2 1.0 2.0 15 17
+ 0.025778 1 2 cbr 1000 ------- 2 1.0 2.0 29 31
- 0.025867 1 2 cbr 1000 ------- 2 1.0 2.0 29 31
r 0.026267 1 2 cbr 1000 ------- 2 1.0 2.0 16 18
+ 0.026667 1 2 cbr 1000 ------- 2 1.0 2.0 30 32
- 0.026667 1 2 cbr 1000 ------- 2 1.0 2.0 30 32
r 0.027067 1 2 cbr 1000 ------- 2 1.0 2.0 17 19
+ 0.027556 1 2 cbr 1000 ------- 2 1.0 2.0 31 33
- 0.027556 1 2 cbr 1000 ------- 2 1.0 2.0 31 33
r 0.027867 1 2 cbr 1000 ------- 2 1.0 2.0 18 20
+ 0.028444 1 2 cbr 1000 ------- 2 1.0 2.0 32 34
- 0.028444 1 2 cbr 1000 ------- 2 1.0 2.0 32 34
r 0.028667 1 2 cbr 1000 ------- 2 1.0 2.0 19 21
+ 0.029333 1 2 cbr 1000 ------- 2 1.0 2.0 33 35
- 0.029333 1 2 cbr 1000 ------- 2 1.0 2.0 33 35
r 0.029467 1 2 cbr 1000 ------- 2 1.0 2.0 20 22
+ 0.030222 1 2 cbr 1000 ------- 2 1.0 2.0 34 36
- 0.030222 1 2 cbr 1000 ------- 2 1.0 2.0 34 36
r 0.030267 1 2 cbr 1000 ------- 2 1.0 2.0 21 23
r 0.031067 1 2 cbr 1000 ------- 2 1.0 2.0 22 24
+ 0.031111 1 2 cbr 1000 ------- 2 1.0 2.0 35 37
- 0.031111 1 2 cbr 1000 ------- 2 1.0 2.0 35 37
r 0.031867 1 2 cbr 1000 ------- 2 1.0 2.0 23 25
+ 0.032 1 2 cbr 1000 ------- 2 1.0 2.0 36 38
- 0.032 1 2 cbr 1000 ------- 2 1.0 2.0 36 38
r 0.032667 1 2 cbr 1000 ------- 2 1.0 2.0 24 26
+ 0.032889 1 2 cbr 1000 ------- 2 1.0 2.0 37 39
- 0.032889 1 2 cbr 1000 ------- 2 1.0 2.0 37 39
r 0.033067 2 3 tcp 1000 ------- 2 0.0 3.0 0 1
+ 0.033067 3 2 ack 40 ------- 2 3.0 0.0 0 40
- 0.033067 3 2 ack 40 ------- 2 3.0 0.0 0 40
r 0.033467 1 2 cbr 1000 ------- 2 1.0 2.0 25 27
+ 0.033778 1 2 cbr 1000 ------- 2 1.0 2.0 38 41
- 0.033778 1 2 cbr 1000 ------- 2 1.0 2.0 38 41
r 0.033867 2 5 tcp 1000 ------- 3 4.0 5.0 0 2
+ 0.033867 5 2 ack 40 ------- 3 5.0 4.0 0 42
- 0.033867 5 2 ack 40 ------- 3 5.0 4.0 0 42
r 0.034267 1 2 cbr 1000 ------- 2 1.0 2.0 26 28
+ 0.034667 1 2 cbr 1000 ------- 2 1.0 2.0 39 43
- 0.034667 1 2 cbr 1000 ------- 2 1.0 2.0 39 43
r 0.035067 1 2 cbr 1000 ------- 2 1.0 2.0 27 29
+ 0.035556 1 2 cbr 1000 ------- 2 1.0 2.0 40 44
- 0.035556 1 2 cbr 1000 ------- 2 1.0 2.0 40 44
r 0.035867 1 2 cbr 1000 ------- 2 1.0 2.0 28 30
+ 0.036444 1 2 cbr 1000 ------- 2 1.0 2.0 41 45
- 0.036444 1 2 cbr 1000 ------- 2 1.0 2.0 41 45
r 0.036667 1 2 cbr 1000 ------- 2 1.0 2.0 29 31
+ 0.037333 1 2 cbr 1000 ------- 2 1.0 2.0 42 46
- 0.037333 1 2 cbr 1000 ------- 2 1.0 2.0 42 46
r 0.037467 1 2 cbr 1000 ------- 2 1.0 2.0 30 32
+ 0.038222 1 2 cbr 1000 ------- 2 1.0 2.0 43 47
- 0.038222 1 2 cbr 1000 ------- 2 1.0 2.0 43 47
r 0.038356 1 2 cbr 1000 ------- 2 1.0 2.0 31 33
+ 0.039111 1 2 cbr 1000 ------- 2 1.0 2.0 44 48
- 0.039111 1 2 cbr 1000 ------- 2 1.0 2.0 44 48
r 0.039244 1 2 cbr 1000 ------- 2 1.0 2.0 32 34
+ 0.04 1 2 cbr 1000 ------- 2 1.0 2.0 45 49
- 0.04 1 2 cbr 1000 ------- 2 1.0 2.0 45 49
r 0.040133 1 2 cbr 1000 ------- 2 1.0 2.0 33 35
+ 0.040889 1 2 cbr 1000 ------- 2 1.0 2.0 46 50
- 0.040889 1 2 cbr 1000 ------- 2 1.0 2.0 46 50
r 0.041022 1 2 cbr 1000 ------- 2 1.0 2.0 34 36
+ 0.041778 1 2 cbr 1000 ------- 2 1.0 2.0 47 51
- 0.041778 1 2 cbr 1000 ------- 2 1.0 2.0 47 51
r 0.041911 1 2 cbr 1000 ------- 2 1.0 2.0 35 37
+ 0.042667 1 2 cbr 1000 ------- 2 1.0 2.0 48 52
- 0.042667 1 2 cbr 1000 ------- 2 1.0 2.0 48 52
r 0.0428 1 2 cbr 1000 ------- 2 1.0 2.0 36 38
r 0.043099 3 2 ack 40 ------- 2 3.0 0.0 0 40
+ 0.043099 2 1 ack 40 ------- 2 3.0 0.0 0 40
- 0.043099 2 1 ack 40 ------- 2 3.0 0.0 0 40
+ 0.043556 1 2 cbr 1000 ------- 2 1.0 2.0 49 53
- 0.043556 1 2 cbr 1000 ------- 2 1.0 2.0 49 53
r 0.043689 1 2 cbr 1000 ------- 2 1.0 2.0 37 39
r 0.043899 5 2 ack 40 ------- 3 5.0 4.0 0 42
+ 0.043899 2 1 ack 40 ------- 3 5.0 4.0 0 42
- 0.043899 2 1 ack 40 ------- 3 5.0 4.0 0 42
+ 0.044444 1 2 cbr 1000 ------- 2 1.0 2.0 50 54
- 0.044444 1 2 cbr 1000 ------- 2 1.0 2.0 50 54
r 0.044578 1 2 cbr 1000 ------- 2 1.0 2.0 38 41
+ 0.045333 1 2 cbr 1000 ------- 2 1.0 2.0 51 55
- 0.045333 1 2 cbr 1000 ------- 2 1.0 2.0 51 55
r 0.045467 1 2 cbr 1000 ------- 2 1.0 2.0 39 43
+ 0.046222 1 2 cbr 1000 ------- 2 1.0 2.0 52 56
- 0.046222 1 2 cbr 1000 ------- 2 1.0 2.0 52 56
r 0.046356 1 2 cbr 1000 ------- 2 1.0 2.0 40 44
+ 0.047111 1 2 cbr 1000 ------- 2 1.0 2.0 53 57
- 0.047111 1 2 cbr 1000 ------- 2 1.0 2.0 53 57
r 0.047244 1 2 cbr 1000 ------- 2 1.0 2.0 41 45
+ 0.048 1 2 cbr 1000 ------- 2 1.0 2.0 54 58
- 0.048 1 2 cbr 1000 ------- 2 1.0 2.0 54 58
r 0.048133 1 2 cbr 1000 ------- 2 1.0 2.0 42 46
+ 0.048889 1 2 cbr 1000 ------- 2 1.0 2.0 55 59
- 0.048889 1 2 cbr 1000 ------- 2 1.0 2.0 55 59
r 0.049022 1 2 cbr 1000 ------- 2 1.0 2.0 43 47
+ 0.049778 1 2 cbr 1000 ------- 2 1.0 2.0 56 60
- 0.049778 1 2 cbr 1000 ------- 2 1.0 2.0 56 60
r 0.049911 1 2 cbr 1000 ------- 2 1.0 2.0 44 48
+ 0.050667 1 2 cbr 1000 ------- 2 1.0 2.0 57 61
- 0.050667 1 2 cbr 1000 ------- 2 1.0 2.0 57 61
r 0.0508 1 2 cbr 1000 ------- 2 1.0 2.0 45 49
+ 0.051556 1 2 cbr 1000 ------- 2 1.0 2.0 58 62
- 0.051556 1 2 cbr 1000 ------- 2 1.0 2.0 58 62
r 0.051689 1 2 cbr 1000 ------- 2 1.0 2.0 46 50
+ 0.052444 1 2 cbr 1000 ------- 2 1.0 2.0 59 63
- 0.052444 1 2 cbr 1000 ------- 2 1.0 2.0 59 63
r 0.052578 1 2 cbr 1000 ------- 2 1.0 2.0 47 51
r 0.053131 2 1 ack 40 ------- 2 3.0 0.0 0 40
+ 0.053131 1 0 ack 40 ------- 2 3.0 0.0 0 40
- 0.053131 1 0 ack 40 ------- 2 3.0 0.0 0 40
+ 0.053333 1 2 cbr 1000 ------- 2 1.0 2.0 60 64
- 0.053333 1 2 cbr 1000 ------- 2 1.0 2.0 60 64
r 0.053467 1 2 cbr 1000 ------- 2 1.0 2.0 48 52
r 0.053931 2 1 ack 40 ------- 3 5.0 4.0 0 42
+ 0.053931 1 4 ack 40 ------- 3 5.0 4.0 0 42
- 0.053931 1 4 ack 40 ------- 3 5.0 4.0 0 42
+ 0.054222 1 2 cbr 1000 ------- 2 1.0 2.0 61 65
- 0.054222 1 2 cbr 1000 ------- 2 1.0 2.0 61 65
r 0.054356 1 2 cbr 1000 ------- 2 1.0 2.0 49 53
+ 0.055111 1 2 cbr 1000 ------- 2 1.0 2.0 62 66
- 0.055111 1 2 cbr 1000 ------- 2 1.0 2.0 62 66
r 0.055244 1 2 cbr 1000 ------- 2 1.0 2.0 50 54
+ 0.056 1 2 cbr 1000 ------- 2 1.0 2.0 63 67
- 0.056 1 2 cbr 1000 ------- 2 1.0 2.0 63 67
r 0.056133 1 2 cbr 1000 ------- 2 1.0 2.0 51 55
+ 0.056889 1 2 cbr 1000 ------- 2 1.0 2.0 64 68
- 0.056889 1 2 cbr 1000 ------- 2 1.0 2.0 64 68
r 0.057022 1 2 cbr 1000 ------- 2 1.0 2.0 52 56
+ 0.057778 1 2 cbr 1000 ------- 2 1.0 2.0 65 69
- 0.057778 1 2 cbr 1000 ------- 2 1.0 2.0 65 69
r 0.057911 1 2 cbr 1000 ------- 2 1.0 2.0 53 57
+ 0.058667 1 2 cbr 1000 ------- 2 1.0 2.0 66 70
- 0.058667 1 2 cbr 1000 ------- 2 1.0 2.0 66 70
r 0.0588 1 2 cbr 1000 ------- 2 1.0 2.0 54 58
+ 0.059556 1 2 cbr 1000 ------- 2 1.0 2.0 67 71
- 0.059556 1 2 cbr 1000 ------- 2 1.0 2.0 67 71
r 0.059689 1 2 cbr 1000 ------- 2 1.0 2.0 55 59
+ 0.060444 1 2 cbr 1000 ------- 2 1.0 2.0 68 72
- 0.060444 1 2 cbr 1000 ------- 2 1.0 2.0 68 72
r 0.060578 1 2 cbr 1000 ------- 2 1.0 2.0 56 60
+ 0.061333 1 2 cbr 1000 ------- 2 1.0 2.0 69 73
- 0.061333 1 2 cbr 1000 ------- 2 1.0 2.0 69 73
r 0.061467 1 2 cbr 1000 ------- 2 1.0 2.0 57 61
+ 0.062222 1 2 cbr 1000 ------- 2 1.0 2.0 70 74
- 0.062222 1 2 cbr 1000 ------- 2 1.0 2.0 70 74
r 0.062356 1 2 cbr 1000 ------- 2 1.0 2.0 58 62
+ 0.063111 1 2 cbr 1000 ------- 2 1.0 2.0 71 75
- 0.063111 1 2 cbr 1000 ------- 2 1.0 2.0 71 75
r 0.063163 1 0 ack 40 ------- 2 3.0 0.0 0 40
+ 0.063163 0 1 tcp 1000 ------- 2 0.0 3.0 1 76
- 0.063163 0 1 tcp 1000 ------- 2 0.0 3.0 1 76
r 0.063244 1 2 cbr 1000 ------- 2 1.0 2.0 59 63
r 0.063963 1 4 ack 40 ------- 3 5.0 4.0 0 42
+ 0.063963 4 1 tcp 1000 ------- 3 4.0 5.0 1 77
- 0.063963 4 1 tcp 1000 ------- 3 4.0 5.0 1 77
+ 0.064 1 2 cbr 1000 ------- 2 1.0 2.0 72 78
- 0.064 1 2 cbr 1000 ------- 2 1.0 2.0 72 78
r 0.064133 1 2 cbr 1000 ------- 2 1.0 2.0 60 64
+ 0.064889 1 2 cbr 1000 ------- 2 1.0 2.0 73 79
- 0.064889 1 2 cbr 1000 ------- 2 1.0 2.0 73 79
r 0.065022 1 2 cbr 1000 ------- 2 1.0 2.0 61 65
+ 0.065778 1 2 cbr 1000 ------- 2 1.0 2.0 74 80
- 0.065778 1 2 cbr 1000 ------- 2 1.0 2.0 74 80
r 0.065911 1 2 cbr 1000 ------- 2 1.0 2.0 62 66
+ 0.066667 1 2 cbr 1000 ------- 2 1.0 2.0 75 81
- 0.066667 1 2 cbr 1000 ------- 2 1.0 2.0 75 81
r 0.0668 1 2 cbr 1000 ------- 2 1.0 2.0 63 67
+ 0.067556 1 2 cbr 1000 ------- 2 1.0 2.0 76 82
- 0.067556 1 2 cbr 1000 ------- 2 1.0 2.0 76 82
r 0.067689 1 2 cbr 1000 ------- 2 1.0 2.0 64 68
+ 0.068444 1 2 cbr 1000 ------- 2 1.0 2.0 77 83
- 0.068444 1 2 cbr 1000 ------- 2 1.0 2.0 77 83
r 0.068578 1 2 cbr 1000 ------- 2 1.0 2.0 65 69
+ 0.069333 1 2 cbr 1000 ------- 2 1.0 2.0 78 84
- 0.069333 1 2 cbr 1000 ------- 2 1.0 2.0 78 84
r 0.069467 1 2 cbr 1000 ------- 2 1.0 2.0 66 70
+ 0.070222 1 2 cbr 1000 ------- 2 1.0 2.0 79 85
- 0.070222 1 2 cbr 1000 ------- 2 1.0 2.0 79 85
r 0.070356 1 2 cbr 1000 ------- 2 1.0 2.0 67 71
+ 0.071111 1 2 cbr 1000 ------- 2 1.0 2.0 80 86
- 0.071111 1 2 cbr 1000 ------- 2 1.0 2.0 80 86
r 0.071244 1 2 cbr 1000 ------- 2 1.0 2.0 68 72
+ 0.072 1 2 cbr 1000 ------- 2 1.0 2.0 81 87
- 0.072 1 2 cbr 1000 ------- 2 1.0 2.0 81 87
r 0.072133 1 2 cbr 1000 ------- 2 1.0 2.0 69 73
+ 0.072889 1 2 cbr 1000 ------- 2 1.0 2.0 82 88
- 0.072889 1 2 cbr 1000 ------- 2 1.0 2.0 82 88
r 0.073022 1 2 cbr 1000 ------- 2 1.0 2.0 70 74
+ 0.073778 1 2 cbr 1000 ------- 2 1.0 2.0 83 89
- 0.073778 1 2 cbr 1000 ------- 2 1.0 2.0 83 89
r 0.073911 1 2 cbr 1000 ------- 2 1.0 2.0 71 75
r 0.073963 0 1 tcp 1000 ------- 2 0.0 3.0 1 76
+ 0.073963 1 2 tcp 1000 ------- 2 0.0 3.0 1 76
- 0.074578 1 2 tcp 1000 ------- 2 0.0 3.0 1 76
+ 0.074667 1 2 cbr 1000 ------- 2 1.0 2.0 84 90
r 0.074763 4 1 tcp 1000 ------- 3 4.0 5.0 1 77
+ 0.074763 1 2 tcp 1000 ------- 3 4.0 5.0 1 77
r 0.0748 1 2 cbr 1000 ------- 2 1.0 2.0 72 78
- 0.075378 1 2 cbr 1000 ------- 2 1.0 2.0 84 90
+ 0.075556 1 2 cbr 1000 ------- 2 1.0 2.0 85 91
r 0.075689 1 2 cbr 1000 ------- 2 1.0 2.0 73 79
- 0.076178 1 2 tcp 1000 ------- 3 4.0 5.0 1 77
+ 0.076444 1 2 cbr 1000 ------- 2 1.0 2.0 86 92
r 0.076578 1 2 cbr 1000 ------- 2 1.0 2.0 74 80
- 0.076978 1 2 cbr 1000 ------- 2 1.0 2.0 85 91
+ 0.077333 1 2 cbr 1000 ------- 2 1.0 2.0 87 93
r 0.077467 1 2 cbr 1000 ------- 2 1.0 2.0 75 81
- 0.077778 1 2 cbr 1000 ------- 2 1.0 2.0 86 92
+ 0.078222 1 2 cbr 1000 ------- 2 1.0 2.0 88 94
r 0.078356 1 2 cbr 1000 ------- 2 1.0 2.0 76 82
- 0.078578 1 2 cbr 1000 ------- 2 1.0 2.0 87 93
+ 0.079111 1 2 cbr 1000 ------- 2 1.0 2.0 89 95
r 0.079244 1 2 cbr 1000 ------- 2 1.0 2.0 77 83
- 0.079378 1 2 cbr 1000 ------- 2 1.0 2.0 88 94
+ 0.08 1 2 cbr 1000 ------- 2 1.0 2.0 90 96
r 0.080133 1 2 cbr 1000 ------- 2 1.0 2.0 78 84
- 0.080178 1 2 cbr 1000 ------- 2 1.0 2.0 89 95
+ 0.080889 1 2 cbr 1000 ------- 2 1.0 2.0 91 97
- 0.080978 1 2 cbr 1000 ------- 2 1.0 2.0 90 96
r 0.081022 1 2 cbr 1000 ------- 2 1.0 2.0 79 85
+ 0.081778 1 2 cbr 1000 ------- 2 1.0 2.0 92 98
- 0.081778 1 2 cbr 1000 ------- 2 1.0 2.0 91 97
r 0.081911 1 2 cbr 1000 ------- 2 1.0 2.0 80 86
- 0.082578 1 2 cbr 1000 ------- 2 1.0 2.0 92 98
+ 0.082667 1 2 cbr 1000 ------- 2 1.0 2.0 93 99
r 0.0828 1 2 cbr 1000 ------- 2 1.0 2.0 81 87
- 0.083378 1 2 cbr 1000 ------- 2 1.0 2.0 93 99
+ 0.083556 1 2 cbr 1000 ------- 2 1.0 2.0 94 100
r 0.083689 1 2 cbr 1000 ------- 2 1.0 2.0 82 88
- 0.084178 1 2 cbr 1000 ------- 2 1.0 2.0 94 100
+ 0.084444 1 2 cbr 1000 ------- 2 1.0 2.0 95 101
r 0.084578 1 2 cbr 1000 ------- 2 1.0 2.0 83 89
- 0.084978 1 2 cbr 1000 ------- 2 1.0 2.0 95 101
+ 0.085333 1 2 cbr 1000 ------- 2 1.0 2.0 96 102
r 0.085378 1 2 tcp 1000 ------- 2 0.0 3.0 1 76
+ 0.085378 2 3 tcp 1000 ------- 2 0.0 3.0 1 76
- 0.085378 2 3 tcp 1000 ------- 2 0.0 3.0 1 76
- 0.085778 1 2 cbr 1000 ------- 2 1.0 2.0 96 102
r 0.086178 1 2 cbr 1000 ------- 2 1.0 2.0 84 90
+ 0.086222 1 2 cbr 1000 ------- 2 1.0 2.0 97 103
- 0.086578 1 2 cbr 1000 ------- 2 1.0 2.0 97 103
r 0.086978 1 2 tcp 1000 ------- 3 4.0 5.0 1 77
+ 0.086978 2 5 tcp 1000 ------- 3 4.0 5.0 1 77
- 0.086978 2 5 tcp 1000 ------- 3 4.0 5.0 1 77
+ 0.087111 1 2 cbr 1000 ------- 2 1.0 2.0 98 104
- 0.087378 1 2 cbr 1000 ------- 2 1.0 2.0 98 104
r 0.087778 1 2 cbr 1000 ------- 2 1.0 2.0 85 91
+ 0.088 1 2 cbr 1000 ------- 2 1.0 2.0 99 105
- 0.088178 1 2 cbr 1000 ------- 2 1.0 2.0 99 105
r 0.088578 1 2 cbr 1000 ------- 2 1.0 2.0 86 92
+ 0.088889 1 2 cbr 1000 ------- 2 1.0 2.0 100 106
- 0.088978 1 2 cbr 1000 ------- 2 1.0 2.0 100 106
r 0.089378 1 2 cbr 1000 ------- 2 1.0 2.0 87 93
+ 0.089778 1 2 cbr 1000 ------- 2 1.0 2.0 101 107
- 0.089778 1 2 cbr 1000 ------- 2 1.0 2.0 101 107
r 0.090178 1 2 cbr 1000 ------- 2 1.0 2.0 88 94
+ 0.090667 1 2 cbr 1000 ------- 2 1.0 2.0 102 108
- 0.090667 1 2 cbr 1000 ------- 2 1.0 2.0 102 108
r 0.090978 1 2 cbr 1000 ------- 2 1.0 2.0 89 95
+ 0.091556 1 2 cbr 1000 ------- 2 1.0 2.0 103 109
- 0.091556 1 2 cbr 1000 ------- 2 1.0 2.0 103 109
r 0.091778 1 2 cbr 1000 ------- 2 1.0 2.0 90 96
+ 0.092444 1 2 cbr 1000 ------- 2 1.0 2.0 104 110
- 0.092444 1 2 cbr 1000 ------- 2 1.0 2.0 104 110
r 0.092578 1 2 cbr 1000 ------- 2 1.0 2.0 91 97
+ 0.093333 1 2 cbr 1000 ------- 2 1.0 2.0 105 111
- 0.093333 1 2 cbr 1000 ------- 2 1.0 2.0 105 111
r 0.093378 1 2 cbr 1000 ------- 2 1.0 2.0 92 98
r 0.094178 1 2 cbr 1000 ------- 2 1.0 2.0 93 99
+ 0.094222 1 2 cbr 1000 ------- 2 1.0 2.0 106 112
- 0.094222 1 2 cbr 1000 ------- 2 1.0 2.0 106 112
r 0.094978 1 2 cbr 1000 ------- 2 1.0 2.0 94 100
+ 0.095111 1 2 cbr 1000 ------- 2 1.0 2.0 107 113
- 0.095111 1 2 cbr 1000 ------- 2 1.0 2.0 107 113
r 0.095778 1 2 cbr 1000 ------- 2 1.0 2.0 95 101
+ 0.096 1 2 cbr 1000 ------- 2 1.0 2.0 108 114
- 0.096 1 2 cbr 1000 ------- 2 1.0 2.0 108 114
r 0.096178 2 3 tcp 1000 ------- 2 0.0 3.0 1 76
+ 0.096178 3 2 ack 40 ------- 2 3.0 0.0 1 115
- 0.096178 3 2 ack 40 ------- 2 3.0 0.0 1 115
r 0.096578 1 2 cbr 1000 ------- 2 1.0 2.0 96 102
+ 0.096889 1 2 cbr 1000 ------- 2 1.0 2.0 109 116
- 0.096889 1 2 cbr 1000 ------- 2 1.0 2.0 109 116
r 0.097378 1 2 cbr 1000 ------- 2 1.0 2.0 97 103
+ 0.097778 1 2 cbr 1000 ------- 2 1.0 2.0 110 117
- 0.097778 1 2 cbr 1000 ------- 2 1.0 2.0 110 117
r 0.097778 2 5 tcp 1000 ------- 3 4.0 5.0 1 77
+ 0.097778 5 2 ack 40 ------- 3 5.0 4.0 1 118
- 0.097778 5 2 ack 40 ------- 3 5.0 4.0 1 118
r 0.098178 1 2 cbr 1000 ------- 2 1.0 2.0 98 104
+ 0.098667 1 2 cbr 1000 ------- 2 1.0 2.0 111 119
- 0.098667 1 2 cbr 1000 ------- 2 1.0 2.0 111 119
r 0.098978 1 2 cbr 1000 ------- 2 1.0 2.0 99 105
+ 0.099556 1 2 cbr 1000 ------- 2 1.0 2.0 112 120
- 0.099556 1 2 cbr 1000 ------- 2 1.0 2.0 112 120
r 0.099778 1 2 cbr 1000 ------- 2 1.0 2.0 100 106
+ 0.100444 1 2 cbr 1000 ------- 2 1.0 2.0 113 121
- 0.100444 1 2 cbr 1000 ------- 2 1.0 2.0 113 121
r 0.100578 1 2 cbr 1000 ------- 2 1.0 2.0 101 107
+ 0.101333 1 2 cbr 1000 ------- 2 1.0 2.0 114 122
- 0.101333 1 2 cbr 1000 ------- 2 1.0 2.0 114 122
r 0.101467 1 2 cbr 1000 ------- 2 1.0 2.0 102 108
+ 0.102222 1 2 cbr 1000 ------- 2 1.0 2.0 115 123
- 0.102222 1 2 cbr 1000 ------- 2 1.0 2.0 115 123
r 0.102356 1 2 cbr 1000 ------- 2 1.0 2.0 103 109
+ 0.103111 1 2 cbr 1000 ------- 2 1.0 2.0 116 124
- 0.103111 1 2 cbr 1000 ------- 2 1.0 2.0 116 124
r 0.103244 1 2 cbr 1000 ------- 2 1.0 2.0 104 110
+ 0.104 1 2 cbr 1000 ------- 2 1.0 2.0 117 125
- 0.104 1 2 cbr 1000 ------- 2 1.0 2.0 117 125
r 0.104133 1 2 cbr 1000 ------- 2 1.0 2.0 105 111
+ 0.104889 1 2 cbr 1000 ------- 2 1.0 2.0 118 126
- 0.104889 1 2 cbr 1000 ------- 2 1.0 2.0 118 126
r 0.105022 1 2 cbr 1000 ------- 2 1.0 2.0 106 112
+ 0.105778 1 2 cbr 1000 ------- 2 1.0 2.0 119 127
- 0.105778 1 2 cbr 1000 ------- 2 1.0 2.0 119 127
r 0.105911 1 2 cbr 1000 ------- 2 1.0 2.0 107 113
r 0.10621 3 2 ack 40 ------- 2 3.0 0.0 1 115
+ 0.10621 2 1 ack 40 ------- 2 3.0 0.0 1 115
- 0.10621 2 1 ack 40 ------- 2 3.0 0.0 1 115
+ 0.106667 1 2 cbr 1000 ------- 2 1.0 2.0 120 128
- 0.106667 1 2 cbr 1000 ------- 2 1.0 2.0 120 128
r 0.1068 1 2 cbr 1000 ------- 2 1.0 2.0 108 114
+ 0.107556 1 2 cbr 1000 ------- 2 1.0 2.0 121 129
- 0.107556 1 2 cbr 1000 ------- 2 1.0 2.0 121 129
r 0.107689 1 2 cbr 1000 ------- 2 1.0 2.0 109 116
r 0.10781 5 2 ack 40 ------- 3 5.0 4.0 1 118
+ 0.10781 2 1 ack 40 ------- 3 5.0 4.0 1 118
- 0.10781 2 1 ack 40 ------- 3 5.0 4.0 1 118
+ 0.108444 1 2 cbr 1000 ------- 2 1.0 2.0 122 130
- 0.108444 1 2 cbr 1000 ------- 2 1.0 2.0 122 130
r 0.108578 1 2 cbr 1000 ------- 2 1.0 2.0 110 117
+ 0.109333 1 2 cbr 1000 ------- 2 1.0 2.0 123 131
- 0.109333 1 2 cbr 1000 ------- 2 1.0 2.0 123 131
r 0.109467 1 2 cbr 1000 ------- 2 1.0 2.0 111 119
+ 0.110222 1 2 cbr 1000 ------- 2 1.0 2.0 124 132
- 0.110222 1 2 cbr 1000 ------- 2 1.0 2.0 124 132
r 0.110356 1 2 cbr 1000 ------- 2 1.0 2.0 112 120
+ 0.111111 1 2 cbr 1000 ------- 2 1.0 2.0 125 133
- 0.111111 1 2 cbr 1000 ------- 2 1.0 2.0 125 133
r 0.111244 1 2 cbr 1000 ------- 2 1.0 2.0 113 121
+ 0.112 1 2 cbr 1000 ------- 2 1.0 2.0 126 134
- 0.112 1 2 cbr 1000 ------- 2 1.0 2.0 126 134
r 0.112133 1 2 cbr 1000 ------- 2 1.0 2.0 114 122
+ 0.112889 1 2 cbr 1000 ------- 2 1.0 2.0 127 135
- 0.112889 1 2 cbr 1000 ------- 2 1.0 2.0 127 135
r 0.113022 1 2 cbr 1000 ------- 2 1.0 2.0 115 123
+ 0.113778 1 2 cbr 1000 ------- 2 1.0 2.0 128 136
- 0.113778 1 2 cbr 1000 ------- 2 1.0 2.0 128 136
r 0.113911 1 2 cbr 1000 ------- 2 1.0 2.0 116 124
+ 0.114667 1 2 cbr 1000 ------- 2 1.0 2.0 129 137
- 0.114667 1 2 cbr 1000 ------- 2 1.0 2.0 129 137
r 0.1148 1 2 cbr 1000 ------- 2 1.0 2.0 117 125
+ 0.115556 1 2 cbr 1000 ------- 2 1.0 2.0 130 138
- 0.115556 1 2 cbr 1000 ------- 2 1.0 2.0 130 138
r 0.115689 1 2 cbr 1000 ------- 2 1.0 2.0 118 126
r 0.116242 2 1 ack 40 ------- 2 3.0 0.0 1 115
+ 0.116242 1 0 ack 40 ------- 2 3.0 0.0 1 115
- 0.116242 1 0 ack 40 ------- 2 3.0 0.0 1 115
+ 0.116444 1 2 cbr 1000 ------- 2 1.0 2.0 131 139
- 0.116444 1 2 cbr 1000 ------- 2 1.0 2.0 131 139
r 0.116578 1 2 cbr 1000 ------- 2 1.0 2.0 119 127
+ 0.117333 1 2 cbr 1000 ------- 2 1.0 2.0 132 140
- 0.117333 1 2 cbr 1000 ------- 2 1.0 2.0 132 140
r 0.117467 1 2 cbr 1000 ------- 2 1.0 2.0 120 128
r 0.117842 2 1 ack 40 ------- 3 5.0 4.0 1 118
+ 0.117842 1 4 ack 40 ------- 3 5.0 4.0 1 118
- 0.117842 1 4 ack 40 ------- 3 5.0 4.0 1 118
+ 0.118222 1 2 cbr 1000 ------- 2 1.0 2.0 133 141
- 0.118222 1 2 cbr 1000 ------- 2 1.0 2.0 133 141
r 0.118356 1 2 cbr 1000 ------- 2 1.0 2.0 121 129
+ 0.119111 1 2 cbr 1000 ------- 2 1.0 2.0 134 142
- 0.119111 1 2 cbr 1000 ------- 2 1.0 2.0 134 142
r 0.119244 1 2 cbr 1000 ------- 2 1.0 2.0 122 130
+ 0.12 1 2 cbr 1000 ------- 2 1.0 2.0 135 143
- 0.12 1 2 cbr 1000 ------- 2 1.0 2.0 135 143
r 0.120133 1 2 cbr 1000 ------- 2 1.0 2.0 123 131
+ 0.120889 1 2 cbr 1000 ------- 2 1.0 2.0 136 144
- 0.120889 1 2 cbr 1000 ------- 2 1.0 2.0 136 144
r 0.121022 1 2 cbr 1000 ------- 2 1.0 2.0 124 132
+ 0.121778 1 2 cbr 1000 ------- 2 1.0 2.0 137 145
- 0.121778 1 2 cbr 1000 ------- 2 1.0 2.0 137 145
r 0.121911 1 2 cbr 1000 ------- 2 1.0 2.0 125 133
+ 0.122667 1 2 cbr 1000 ------- 2 1.0 2.0 138 146
- 0.122667 1 2 cbr 1000 ------- 2 1.0 2.0 138 146
r 0.1228 1 2 cbr 1000 ------- 2 1.0 2.0 126 134
+ 0.123556 1 2 cbr 1000 ------- 2 1.0 2.0 139 147
- 0.123556 1 2 cbr 1000 ------- 2 1.0 2.0 139 147
r 0.123689 1 2 cbr 1000 ------- 2 1.0 2.0 127 135
+ 0.124444 1 2 cbr 1000 ------- 2 1.0 2.0 140 148
- 0.124444 1 2 cbr 1000 ------- 2 1.0 2.0 140 148
r 0.124578 1 2 cbr 1000 ------- 2 1.0 2.0 128 136
+ 0.125333 1 2 cbr 1000 ------- 2 1.0 2.0 141 149
- 0.125333 1 2 cbr 1000 ------- 2 1.0 2.0 141 149
r 0.125467 1 2 cbr 1000 ------- 2 1.0 2.0 129 137
+ 0.126222 1 2 cbr 1000 ------- 2 1.0 2.0 142 150
- 0.126222 1 2 cbr 1000 ------- 2 1.0 2.0 142 150
r 0.126274 1 0 ack 40 ------- 2 3.0 0.0 1 115
+ 0.126274 0 1 tcp 1000 ------- 2 0.0 3.0 2 151
- 0.126274 0 1 tcp 1000 ------- 2 0.0 3.0 2 151
+ 0.126274 0 1 tcp 1000 ------- 2 0.0 3.0 3 152
+ 0.126274 0 1 tcp 1000 ------- 2 0.0 3.0 4 153
r 0.126356 1 2 cbr 1000 ------- 2 1.0 2.0 130 138
- 0.127074 0 1 tcp 1000 ------- 2 0.0 3.0 3 152
+ 0.127111 1 2 cbr 1000 ------- 2 1.0 2.0 143 154
- 0.127111 1 2 cbr 1000 ------- 2 1.0 2.0 143 154
r 0.127244 1 2 cbr 1000 ------- 2 1.0 2.0 131 139
r 0.127874 1 4 ack 40 ------- 3 5.0 4.0 1 118
+ 0.127874 4 1 tcp 1000 ------- 3 4.0 5.0 2 155
- 0.127874 4 1 tcp 1000 ------- 3 4.0 5.0 2 155
+ 0.127874 4 1 tcp 1000 ------- 3 4.0 5.0 3 156
+ 0.127874 4 1 tcp 1000 ------- 3 4.0 5.0 4 157
- 0.127874 0 1 tcp 1000 ------- 2 0.0 3.0 4 153
+ 0.128 1 2 cbr 1000 ------- 2 1.0 2.0 144 158
- 0.128 1 2 cbr 1000 ------- 2 1.0 2.0 144 158
r 0.128133 1 2 cbr 1000 ------- 2 1.0 2.0 132 140
- 0.128674 4 1 tcp 1000 ------- 3 4.0 5.0 3 156
+ 0.128889 1 2 cbr 1000 ------- 2 1.0 2.0 145 159
- 0.128889 1 2 cbr 1000 ------- 2 1.0 2.0 145 159
r 0.129022 1 2 cbr 1000 ------- 2 1.0 2.0 133 141
- 0.129474 4 1 tcp 1000 ------- 3 4.0 5.0 4 157
+ 0.129778 1 2 cbr 1000 ------- 2 1.0 2.0 146 160
- 0.129778 1 2 cbr 1000 ------- 2 1.0 2.0 146 160
r 0.129911 1 2 cbr 1000 ------- 2 1.0 2.0 134 142
+ 0.130667 1 2 cbr 1000 ------- 2 1.0 2.0 147 161
- 0.130667 1 2 cbr 1000 ------- 2 1.0 2.0 147 161
r 0.1308 1 2 cbr 1000 ------- 2 1.0 2.0 135 143
+ 0.131556 1 2 cbr 1000 ------- 2 1.0 2.0 148 162
- 0.131556 1 2 cbr 1000 ------- 2 1.0 2.0 148 162
r 0.131689 1 2 cbr 1000 ------- 2 1.0 2.0 136 144
+ 0.132444 1 2 cbr 1000 ------- 2 1.0 2.0 149 163
- 0.132444 1 2 cbr 1000 ------- 2 1.0 2.0 149 163
r 0.132578 1 2 cbr 1000 ------- 2 1.0 2.0 137 145
+ 0.133333 1 2 cbr 1000 ------- 2 1.0 2.0 150 164
- 0.133333 1 2 cbr 1000 ------- 2 1.0 2.0 150 164
r 0.133467 1 2 cbr 1000 ------- 2 1.0 2.0 138 146
+ 0.134222 1 2 cbr 1000 ------- 2 1.0 2.0 151 165
- 0.134222 1 2 cbr 1000 ------- 2 1.0 2.0 151 165
r 0.134356 1 2 cbr 1000 ------- 2 1.0 2.0 139 147
+ 0.135111 1 2 cbr 1000 ------- 2 1.0 2.0 152 166
- 0.135111 1 2 cbr 1000 ------- 2 1.0 2.0 152 166
r 0.135244 1 2 cbr 1000 ------- 2 1.0 2.0 140 148
+ 0.136 1 2 cbr 1000 ------- 2 1.0 2.0 153 167
- 0.136 1 2 cbr 1000 ------- 2 1.0 2.0 153 167
r 0.136133 1 2 cbr 1000 ------- 2 1.0 2.0 141 149
+ 0.136889 1 2 cbr 1000 ------- 2 1.0 2.0 154 168
- 0.136889 1 2 cbr 1000 ------- 2 1.0 2.0 154 168
r 0.137022 1 2 cbr 1000 ------- 2 1.0 2.0 142 150
r 0.137074 0 1 tcp 1000 ------- 2 0.0 3.0 2 151
+ 0.137074 1 2 tcp 1000 ------- 2 0.0 3.0 2 151
- 0.137689 1 2 tcp 1000 ------- 2 0.0 3.0 2 151
+ 0.137778 1 2 cbr 1000 ------- 2 1.0 2.0 155 169
r 0.137874 0 1 tcp 1000 ------- 2 0.0 3.0 3 152
+ 0.137874 1 2 tcp 1000 ------- 2 0.0 3.0 3 152
r 0.137911 1 2 cbr 1000 ------- 2 1.0 2.0 143 154
- 0.138489 1 2 cbr 1000 ------- 2 1.0 2.0 155 169
+ 0.138667 1 2 cbr 1000 ------- 2 1.0 2.0 156 170
r 0.138674 4 1 tcp 1000 ------- 3 4.0 5.0 2 155
+ 0.138674 1 2 tcp 1000 ------- 3 4.0 5.0 2 155
r 0.138674 0 1 tcp 1000 ------- 2 0.0 3.0 4 153
+ 0.138674 1 2 tcp 1000 ------- 2 0.0 3.0 4 153
r 0.1388 1 2 cbr 1000 ------- 2 1.0 2.0 144 158
- 0.139289 1 2 tcp 1000 ------- 2 0.0 3.0 3 152
r 0.139474 4 1 tcp 1000 ------- 3 4.0 5.0 3 156
+ 0.139474 1 2 tcp 1000 ------- 3 4.0 5.0 3 156
+ 0.139556 1 2 cbr 1000 ------- 2 1.0 2.0 157 171
r 0.139689 1 2 cbr 1000 ------- 2 1.0 2.0 145 159
- 0.140089 1 2 cbr 1000 ------- 2 1.0 2.0 156 170
r 0.140274 4 1 tcp 1000 ------- 3 4.0 5.0 4 157
+ 0.140274 1 2 tcp 1000 ------- 3 4.0 5.0 4 157
+ 0.140444 1 2 cbr 1000 ------- 2 1.0 2.0 158 172
r 0.140578 1 2 cbr 1000 ------- 2 1.0 2.0 146 160
- 0.140889 1 2 tcp 1000 ------- 3 4.0 5.0 2 155
+ 0.141333 1 2 cbr 1000 ------- 2 1.0 2.0 159 173
r 0.141467 1 2 cbr 1000 ------- 2 1.0 2.0 147 161
- 0.141689 1 2 tcp 1000 ------- 2 0.0 3.0 4 153
+ 0.142222 1 2 cbr 1000 ------- 2 1.0 2.0 160 174
r 0.142356 1 2 cbr 1000 ------- 2 1.0 2.0 148 162
- 0.142489 1 2 tcp 1000 ------- 3 4.0 5.0 3 156
+ 0.143111 1 2 cbr 1000 ------- 2 1.0 2.0 161 175
r 0.143244 1 2 cbr 1000 ------- 2 1.0 2.0 149 163
- 0.143289 1 2 cbr 1000 ------- 2 1.0 2.0 157 171
+ 0.144 1 2 cbr 1000 ------- 2 1.0 2.0 162 176
- 0.144089 1 2 tcp 1000 ------- 3 4.0 5.0 4 157
r 0.144133 1 2 cbr 1000 ------- 2 1.0 2.0 150 164
+ 0.144889 1 2 cbr 1000 ------- 2 1.0 2.0 163 177
- 0.144889 1 2 cbr 1000 ------- 2 1.0 2.0 158 172
r 0.145022 1 2 cbr 1000 ------- 2 1.0 2.0 151 165
- 0.145689 1 2 cbr 1000 ------- 2 1.0 2.0 159 173
+ 0.145778 1 2 cbr 1000 ------- 2 1.0 2.0 164 178
r 0.145911 1 2 cbr 1000 ------- 2 1.0 2.0 152 166
- 0.146489 1 2 cbr 1000 ------- 2 1.0 2.0 160 174
+ 0.146667 1 2 cbr 1000 ------- 2 1.0 2.0 165 179
r 0.1468 1 2 cbr 1000 ------- 2 1.0 2.0 153 167
- 0.147289 1 2 cbr 1000 ------- 2 1.0 2.0 161 175
+ 0.147556 1 2 cbr 1000 ------- 2 1.0 2.0 166 180
r 0.147689 1 2 cbr 1000 ------- 2 1.0 2.0 154 168
- 0.148089 1 2 cbr 1000 ------- 2 1.0 2.0 162 176
+ 0.148444 1 2 cbr 1000 ------- 2 1.0 2.0 167 181
r 0.148489 1 2 tcp 1000 ------- 2 0.0 3.0 2 151
+ 0.148489 2 3 tcp 1000 ------- 2 0.0 3.0 2 151
- 0.148489 2 3 tcp 1000 ------- 2 0.0 3.0 2 151
- 0.148889 1 2 cbr 1000 ------- 2 1.0 2.0 163 177
r 0.149289 1 2 cbr 1000 ------- 2 1.0 2.0 155 169
+ 0.149333 1 2 cbr 1000 ------- 2 1.0 2.0 168 182
- 0.149689 1 2 cbr 1000 ------- 2 1.0 2.0 164 178
r 0.150089 1 2 tcp 1000 ------- 2 0.0 3.0 3 152
+ 0.150089 2 3 tcp 1000 ------- 2 0.0 3.0 3 152
- 0.150089 2 3 tcp 1000 ------- 2 0.0 3.0 3 152
+ 0.150222 1 2 cbr 1000 ------- 2 1.0 2.0 169 183
- 0.150489 1 2 cbr 1000 ------- 2 1.0 2.0 165 179
r 0.150889 1 2 cbr 1000 ------- 2 1.0 2.0 156 170
+ 0.151111 1 2 cbr 1000 ------- 2 1.0 2.0 170 184
- 0.151289 1 2 cbr 1000 ------- 2 1.0 2.0 166 180
r 0.151689 1 2 tcp 1000 ------- 3 4.0 5.0 2 155
+ 0.151689 2 5 tcp 1000 ------- 3 4.0 5.0 2 155
- 0.151689 2 5 tcp 1000 ------- 3 4.0 5.0 2 155
+ 0.152 1 2 cbr 1000 ------- 2 1.0 2.0 171 185
- 0.152089 1 2 cbr 1000 ------- 2 1.0 2.0 167 181
r 0.152489 1 2 tcp 1000 ------- 2 0.0 3.0 4 153
+ 0.152489 2 3 tcp 1000 ------- 2 0.0 3.0 4 153
- 0.152489 2 3 tcp 1000 ------- 2 0.0 3.0 4 153
+ 0.152889 1 2 cbr 1000 ------- 2 1.0 2.0 172 186
- 0.152889 1 2 cbr 1000 ------- 2 1.0 2.0 168 182
r 0.153289 1 2 tcp 1000 ------- 3 4.0 5.0 3 156
+ 0.153289 2 5 tcp 1000 ------- 3 4.0 5.0 3 156
- 0.153289 2 5 tcp 1000 ------- 3 4.0 5.0 3 156
- 0.153689 1 2 cbr 1000 ------- 2 1.0 2.0 169 183
+ 0.153778 1 2 cbr 1000 ------- 2 1.0 2.0 173 187
r 0.154089 1 2 cbr 1000 ------- 2 1.0 2.0 157 171
- 0.154489 1 2 cbr 1000 ------- 2 1.0 2.0 170 184
+ 0.154667 1 2 cbr 1000 ------- 2 1.0 2.0 174 188
r 0.154889 1 2 tcp 1000 ------- 3 4.0 5.0 4 157
+ 0.154889 2 5 tcp 1000 ------- 3 4.0 5.0 4 157
- 0.154889 2 5 tcp 1000 ------- 3 4.0 5.0 4 157