+ 0 1 2 cbr 1000 ------- 2 1.0 2.0 0 0
- 0 1 2 cbr 1000 ------- 2 1.0 2.0 0 0
+ 0 0 1 tcp 40 ------- 2 0.0 3.0 0 1
- 0 0 1 tcp 40 ------- 2 0.0 3.0 0 1
+ 0 4 1 tcp 1000 ------- 3 4.0 5.0 0 2
- 0 4 1 tcp 1000 ------- 3 4.0 5.0 0 2
+ 0.000889 1 2 cbr 1000 ------- 2 1.0 2.0 1 3
- 0.000889 1 2 cbr 1000 ------- 2 1.0 2.0 1 3
+ 0.001778 1 2 cbr 1000 ------- 2 1.0 2.0 2 4
- 0.001778 1 2 cbr 1000 ------- 2 1.0 2.0 2 4
+ 0.002667 1 2 cbr 1000 ------- 2 1.0 2.0 3 5
- 0.002667 1 2 cbr 1000 ------- 2 1.0 2.0 3 5
+ 0.003556 1 2 cbr 1000 ------- 2 1.0 2.0 4 6
- 0.003556 1 2 cbr 1000 ------- 2 1.0 2.0 4 6
+ 0.004444 1 2 cbr 1000 ------- 2 1.0 2.0 5 7
- 0.004444 1 2 cbr 1000 ------- 2 1.0 2.0 5 7
+ 0.005333 1 2 cbr 1000 ------- 2 1.0 2.0 6 8
- 0.005333 1 2 cbr 1000 ------- 2 1.0 2.0 6 8
+ 0.006222 1 2 cbr 1000 ------- 2 1.0 2.0 7 9
- 0.006222 1 2 cbr 1000 ------- 2 1.0 2.0 7 9
+ 0.007111 1 2 cbr 1000 ------- 2 1.0 2.0 8 10
- 0.007111 1 2 cbr 1000 ------- 2 1.0 2.0 8 10
+ 0.008 1 2 cbr 1000 ------- 2 1.0 2.0 9 11
- 0.008 1 2 cbr 1000 ------- 2 1.0 2.0 9 11
+ 0.008889 1 2 cbr 1000 ------- 2 1.0 2.0 10 12
- 0.008889 1 2 cbr 1000 ------- 2 1.0 2.0 10 12
+ 0.009778 1 2 cbr 1000 ------- 2 1.0 2.0 11 13
- 0.009778 1 2 cbr 1000 ------- 2 1.0 2.0 11 13
r 0.010032 0 1 tcp 40 ------- 2 0.0 3.0 0 1
+ 0.010032 1 2 tcp 40 ------- 2 0.0 3.0 0 1
- 0.010578 1 2 tcp 40 ------- 2 0.0 3.0 0 1
+ 0.010667 1 2 cbr 1000 ------- 2 1.0 2.0 12 14
- 0.010667 1 2 cbr 1000 ------- 2 1.0 2.0 12 14
r 0.0108 1 2 cbr 1000 ------- 2 1.0 2.0 0 0
r 0.0108 4 1 tcp 1000 ------- 3 4.0 5.0 0 2
+ 0.0108 1 2 tcp 1000 ------- 3 4.0 5.0 0 2
- 0.011467 1 2 tcp 1000 ------- 3 4.0 5.0 0 2
+ 0.011556 1 2 cbr 1000 ------- 2 1.0 2.0 13 15
r 0.011689 1 2 cbr 1000 ------- 2 1.0 2.0 1 3
- 0.012267 1 2 cbr 1000 ------- 2 1.0 2.0 13 15
+ 0.012444 1 2 cbr 1000 ------- 2 1.0 2.0 14 16
r 0.012578 1 2 cbr 1000 ------- 2 1.0 2.0 2 4
- 0.013067 1 2 cbr 1000 ------- 2 1.0 2.0 14 16
+ 0.013333 1 2 cbr 1000 ------- 2 1.0 2.0 15 17
r 0.013467 1 2 cbr 1000 ------- 2 1.0 2.0 3 5
- 0.013867 1 2 cbr 1000 ------- 2 1.0 2.0 15 17
+ 0.014222 1 2 cbr 1000 ------- 2 1.0 2.0 16 18
r 0.014356 1 2 cbr 1000 ------- 2 1.0 2.0 4 6
- 0.014667 1 2 cbr 1000 ------- 2 1.0 2.0 16 18
+ 0.015111 1 2 cbr 1000 ------- 2 1.0 2.0 17 19
r 0.015244 1 2 cbr 1000 ------- 2 1.0 2.0 5 7
- 0.015467 1 2 cbr 1000 ------- 2 1.0 2.0 17 19
+ 0.016 1 2 cbr 1000 ------- 2 1.0 2.0 18 20
r 0.016133 1 2 cbr 1000 ------- 2 1.0 2.0 6 8
- 0.016267 1 2 cbr 1000 ------- 2 1.0 2.0 18 20
+ 0.016889 1 2 cbr 1000 ------- 2 1.0 2.0 19 21
r 0.017022 1 2 cbr 1000 ------- 2 1.0 2.0 7 9
- 0.017067 1 2 cbr 1000 ------- 2 1.0 2.0 19 21
+ 0.017778 1 2 cbr 1000 ------- 2 1.0 2.0 20 22
- 0.017867 1 2 cbr 1000 ------- 2 1.0 2.0 20 22
r 0.017911 1 2 cbr 1000 ------- 2 1.0 2.0 8 10
+ 0.018667 1 2 cbr 1000 ------- 2 1.0 2.0 21 23
- 0.018667 1 2 cbr 1000 ------- 2 1.0 2.0 21 23
r 0.0188 1 2 cbr 1000 ------- 2 1.0 2.0 9 11
+ 0.019556 1 2 cbr 1000 ------- 2 1.0 2.0 22 24
- 0.019556 1 2 cbr 1000 ------- 2 1.0 2.0 22 24
r 0.019689 1 2 cbr 1000 ------- 2 1.0 2.0 10 12
+ 0.020444 1 2 cbr 1000 ------- 2 1.0 2.0 23 25
- 0.020444 1 2 cbr 1000 ------- 2 1.0 2.0 23 25
r 0.020578 1 2 cbr 1000 ------- 2 1.0 2.0 11 13
r 0.02061 1 2 tcp 40 ------- 2 0.0 3.0 0 1
+ 0.02061 2 3 tcp 40 ------- 2 0.0 3.0 0 1
- 0.02061 2 3 tcp 40 ------- 2 0.0 3.0 0 1
+ 0.021333 1 2 cbr 1000 ------- 2 1.0 2.0 24 26
- 0.021333 1 2 cbr 1000 ------- 2 1.0 2.0 24 26
r 0.021467 1 2 cbr 1000 ------- 2 1.0 2.0 12 14
+ 0.022222 1 2 cbr 1000 ------- 2 1.0 2.0 25 27
- 0.022222 1 2 cbr 1000 ------- 2 1.0 2.0 25 27
r 0.022267 1 2 tcp 1000 ------- 3 4.0 5.0 0 2
+ 0.022267 2 5 tcp 1000 ------- 3 4.0 5.0 0 2
- 0.022267 2 5 tcp 1000 ------- 3 4.0 5.0 0 2
r 0.023067 1 2 cbr 1000 ------- 2 1.0 2.0 13 15
+ 0.023111 1 2 cbr 1000 ------- 2 1.0 2.0 26 28
- 0.023111 1 2 cbr 1000 ------- 2 1.0 2.0 26 28
r 0.023867 1 2 cbr 1000 ------- 2 1.0 2.0 14 16
+ 0.024 1 2 cbr 1000 ------- 2 1.0 2.0 27 29
- 0.024 1 2 cbr 1000 ------- 2 1.0 2.0 27 29
r 0.024667 1 2 cbr 1000 ------- 2 1.0 2.0 15 17
+ 0.024889 1 2 cbr 1000 ------- 2 1.0 2.0 28 30
- 0.024889 1 2 cbr 1000 ------- 2 1.0 2.0 28 30
r 0.025467 1 2 cbr 1000 ------- 2 1.0 2.0 16 18
+ 0.025778 1 2 cbr 1000 ------- 2 1.0 2.0 29 31
- 0.025778 1 2 cbr 1000 ------- 2 1.0 2.0 29 31
r 0.026267 1 2 cbr 1000 ------- 2 1.0 2.0 17 19
+ 0.026667 1 2 cbr 1000 ------- 2 1.0 2.0 30 32
- 0.026667 1 2 cbr 1000 ------- 2 1.0 2.0 30 32
r 0.027067 1 2 cbr 1000 ------- 2 1.0 2.0 18 20
+ 0.027556 1 2 cbr 1000 ------- 2 1.0 2.0 31 33
- 0.027556 1 2 cbr 1000 ------- 2 1.0 2.0 31 33
r 0.027867 1 2 cbr 1000 ------- 2 1.0 2.0 19 21
+ 0.028444 1 2 cbr 1000 ------- 2 1.0 2.0 32 34
- 0.028444 1 2 cbr 1000 ------- 2 1.0 2.0 32 34
r 0.028667 1 2 cbr 1000 ------- 2 1.0 2.0 20 22
+ 0.029333 1 2 cbr 1000 ------- 2 1.0 2.0 33 35
- 0.029333 1 2 cbr 1000 ------- 2 1.0 2.0 33 35
r 0.029467 1 2 cbr 1000 ------- 2 1.0 2.0 21 23
+ 0.030222 1 2 cbr 1000 ------- 2 1.0 2.0 34 36
- 0.030222 1 2 cbr 1000 ------- 2 1.0 2.0 34 36
r 0.030356 1 2 cbr 1000 ------- 2 1.0 2.0 22 24
r 0.030642 2 3 tcp 40 ------- 2 0.0 3.0 0 1
+ 0.030642 3 2 ack 40 ------- 2 3.0 0.0 0 37
- 0.030642 3 2 ack 40 ------- 2 3.0 0.0 0 37
+ 0.031111 1 2 cbr 1000 ------- 2 1.0 2.0 35 38
- 0.031111 1 2 cbr 1000 ------- 2 1.0 2.0 35 38
r 0.031244 1 2 cbr 1000 ------- 2 1.0 2.0 23 25
+ 0.032 1 2 cbr 1000 ------- 2 1.0 2.0 36 39
- 0.032 1 2 cbr 1000 ------- 2 1.0 2.0 36 39
r 0.032133 1 2 cbr 1000 ------- 2 1.0 2.0 24 26
+ 0.032889 1 2 cbr 1000 ------- 2 1.0 2.0 37 40
- 0.032889 1 2 cbr 1000 ------- 2 1.0 2.0 37 40
r 0.033022 1 2 cbr 1000 ------- 2 1.0 2.0 25 27
r 0.033067 2 5 tcp 1000 ------- 3 4.0 5.0 0 2
+ 0.033067 5 2 ack 40 ------- 3 5.0 4.0 0 41
- 0.033067 5 2 ack 40 ------- 3 5.0 4.0 0 41
+ 0.033778 1 2 cbr 1000 ------- 2 1.0 2.0 38 42
- 0.033778 1 2 cbr 1000 ------- 2 1.0 2.0 38 42
r 0.033911 1 2 cbr 1000 ------- 2 1.0 2.0 26 28
+ 0.034667 1 2 cbr 1000 ------- 2 1.0 2.0 39 43
- 0.034667 1 2 cbr 1000 ------- 2 1.0 2.0 39 43
r 0.0348 1 2 cbr 1000 ------- 2 1.0 2.0 27 29
+ 0.035556 1 2 cbr 1000 ------- 2 1.0 2.0 40 44
- 0.035556 1 2 cbr 1000 ------- 2 1.0 2.0 40 44
r 0.035689 1 2 cbr 1000 ------- 2 1.0 2.0 28 30
+ 0.036444 1 2 cbr 1000 ------- 2 1.0 2.0 41 45
- 0.036444 1 2 cbr 1000 ------- 2 1.0 2.0 41 45
r 0.036578 1 2 cbr 1000 ------- 2 1.0 2.0 29 31
+ 0.037333 1 2 cbr 1000 ------- 2 1.0 2.0 42 46
- 0.037333 1 2 cbr 1000 ------- 2 1.0 2.0 42 46
r 0.037467 1 2 cbr 1000 ------- 2 1.0 2.0 30 32
+ 0.038222 1 2 cbr 1000 ------- 2 1.0 2.0 43 47
- 0.038222 1 2 cbr 1000 ------- 2 1.0 2.0 43 47
r 0.038356 1 2 cbr 1000 ------- 2 1.0 2.0 31 33
+ 0.039111 1 2 cbr 1000 ------- 2 1.0 2.0 44 48
- 0.039111 1 2 cbr 1000 ------- 2 1.0 2.0 44 48
r 0.039244 1 2 cbr 1000 ------- 2 1.0 2.0 32 34
+ 0.04 1 2 cbr 1000 ------- 2 1.0 2.0 45 49
- 0.04 1 2 cbr 1000 ------- 2 1.0 2.0 45 49
r 0.040133 1 2 cbr 1000 ------- 2 1.0 2.0 33 35
r 0.040674 3 2 ack 40 ------- 2 3.0 0.0 0 37
+ 0.040674 2 1 ack 40 ------- 2 3.0 0.0 0 37
- 0.040674 2 1 ack 40 ------- 2 3.0 0.0 0 37
+ 0.040889 1 2 cbr 1000 ------- 2 1.0 2.0 46 50
- 0.040889 1 2 cbr 1000 ------- 2 1.0 2.0 46 50
r 0.041022 1 2 cbr 1000 ------- 2 1.0 2.0 34 36
+ 0.041778 1 2 cbr 1000 ------- 2 1.0 2.0 47 51
- 0.041778 1 2 cbr 1000 ------- 2 1.0 2.0 47 51
r 0.041911 1 2 cbr 1000 ------- 2 1.0 2.0 35 38
+ 0.042667 1 2 cbr 1000 ------- 2 1.0 2.0 48 52
- 0.042667 1 2 cbr 1000 ------- 2 1.0 2.0 48 52
r 0.0428 1 2 cbr 1000 ------- 2 1.0 2.0 36 39
r 0.043099 5 2 ack 40 ------- 3 5.0 4.0 0 41
+ 0.043099 2 1 ack 40 ------- 3 5.0 4.0 0 41
- 0.043099 2 1 ack 40 ------- 3 5.0 4.0 0 41
+ 0.043556 1 2 cbr 1000 ------- 2 1.0 2.0 49 53
- 0.043556 1 2 cbr 1000 ------- 2 1.0 2.0 49 53
r 0.043689 1 2 cbr 1000 ------- 2 1.0 2.0 37 40
+ 0.044444 1 2 cbr 1000 ------- 2 1.0 2.0 50 54
- 0.044444 1 2 cbr 1000 ------- 2 1.0 2.0 50 54
r 0.044578 1 2 cbr 1000 ------- 2 1.0 2.0 38 42
+ 0.045333 1 2 cbr 1000 ------- 2 1.0 2.0 51 55
- 0.045333 1 2 cbr 1000 ------- 2 1.0 2.0 51 55
r 0.045467 1 2 cbr 1000 ------- 2 1.0 2.0 39 43
+ 0.046222 1 2 cbr 1000 ------- 2 1.0 2.0 52 56
- 0.046222 1 2 cbr 1000 ------- 2 1.0 2.0 52 56
r 0.046356 1 2 cbr 1000 ------- 2 1.0 2.0 40 44
+ 0.047111 1 2 cbr 1000 ------- 2 1.0 2.0 53 57
- 0.047111 1 2 cbr 1000 ------- 2 1.0 2.0 53 57
r 0.047244 1 2 cbr 1000 ------- 2 1.0 2.0 41 45
+ 0.048 1 2 cbr 1000 ------- 2 1.0 2.0 54 58
- 0.048 1 2 cbr 1000 ------- 2 1.0 2.0 54 58
r 0.048133 1 2 cbr 1000 ------- 2 1.0 2.0 42 46
+ 0.048889 1 2 cbr 1000 ------- 2 1.0 2.0 55 59
- 0.048889 1 2 cbr 1000 ------- 2 1.0 2.0 55 59
r 0.049022 1 2 cbr 1000 ------- 2 1.0 2.0 43 47
+ 0.049778 1 2 cbr 1000 ------- 2 1.0 2.0 56 60
- 0.049778 1 2 cbr 1000 ------- 2 1.0 2.0 56 60
r 0.049911 1 2 cbr 1000 ------- 2 1.0 2.0 44 48
+ 0.050667 1 2 cbr 1000 ------- 2 1.0 2.0 57 61
- 0.050667 1 2 cbr 1000 ------- 2 1.0 2.0 57 61
r 0.050706 2 1 ack 40 ------- 2 3.0 0.0 0 37
+ 0.050706 1 0 ack 40 ------- 2 3.0 0.0 0 37
- 0.050706 1 0 ack 40 ------- 2 3.0 0.0 0 37
r 0.0508 1 2 cbr 1000 ------- 2 1.0 2.0 45 49
+ 0.051556 1 2 cbr 1000 ------- 2 1.0 2.0 58 62
- 0.051556 1 2 cbr 1000 ------- 2 1.0 2.0 58 62
r 0.051689 1 2 cbr 1000 ------- 2 1.0 2.0 46 50
+ 0.052444 1 2 cbr 1000 ------- 2 1.0 2.0 59 63
- 0.052444 1 2 cbr 1000 ------- 2 1.0 2.0 59 63
r 0.052578 1 2 cbr 1000 ------- 2 1.0 2.0 47 51
r 0.053131 2 1 ack 40 ------- 3 5.0 4.0 0 41
+ 0.053131 1 4 ack 40 ------- 3 5.0 4.0 0 41
- 0.053131 1 4 ack 40 ------- 3 5.0 4.0 0 41
+ 0.053333 1 2 cbr 1000 ------- 2 1.0 2.0 60 64
- 0.053333 1 2 cbr 1000 ------- 2 1.0 2.0 60 64
r 0.053467 1 2 cbr 1000 ------- 2 1.0 2.0 48 52
+ 0.054222 1 2 cbr 1000 ------- 2 1.0 2.0 61 65
- 0.054222 1 2 cbr 1000 ------- 2 1.0 2.0 61 65
r 0.054356 1 2 cbr 1000 ------- 2 1.0 2.0 49 53
+ 0.055111 1 2 cbr 1000 ------- 2 1.0 2.0 62 66
- 0.055111 1 2 cbr 1000 ------- 2 1.0 2.0 62 66
r 0.055244 1 2 cbr 1000 ------- 2 1.0 2.0 50 54
+ 0.056 1 2 cbr 1000 ------- 2 1.0 2.0 63 67
- 0.056 1 2 cbr 1000 ------- 2 1.0 2.0 63 67
r 0.056133 1 2 cbr 1000 ------- 2 1.0 2.0 51 55
+ 0.056889 1 2 cbr 1000 ------- 2 1.0 2.0 64 68
- 0.056889 1 2 cbr 1000 ------- 2 1.0 2.0 64 68
r 0.057022 1 2 cbr 1000 ------- 2 1.0 2.0 52 56
+ 0.057778 1 2 cbr 1000 ------- 2 1.0 2.0 65 69
- 0.057778 1 2 cbr 1000 ------- 2 1.0 2.0 65 69
r 0.057911 1 2 cbr 1000 ------- 2 1.0 2.0 53 57
+ 0.058667 1 2 cbr 1000 ------- 2 1.0 2.0 66 70
- 0.058667 1 2 cbr 1000 ------- 2 1.0 2.0 66 70
r 0.0588 1 2 cbr 1000 ------- 2 1.0 2.0 54 58
+ 0.059556 1 2 cbr 1000 ------- 2 1.0 2.0 67 71
- 0.059556 1 2 cbr 1000 ------- 2 1.0 2.0 67 71
r 0.059689 1 2 cbr 1000 ------- 2 1.0 2.0 55 59
+ 0.060444 1 2 cbr 1000 ------- 2 1.0 2.0 68 72
- 0.060444 1 2 cbr 1000 ------- 2 1.0 2.0 68 72
r 0.060578 1 2 cbr 1000 ------- 2 1.0 2.0 56 60
r 0.060738 1 0 ack 40 ------- 2 3.0 0.0 0 37
+ 0.060738 0 1 tcp 1040 ------- 2 0.0 3.0 1 73
- 0.060738 0 1 tcp 1040 ------- 2 0.0 3.0 1 73
+ 0.060738 0 1 tcp 1040 ------- 2 0.0 3.0 2 74
+ 0.061333 1 2 cbr 1000 ------- 2 1.0 2.0 69 75
- 0.061333 1 2 cbr 1000 ------- 2 1.0 2.0 69 75
r 0.061467 1 2 cbr 1000 ------- 2 1.0 2.0 57 61
- 0.06157 0 1 tcp 1040 ------- 2 0.0 3.0 2 74
+ 0.062222 1 2 cbr 1000 ------- 2 1.0 2.0 70 76
- 0.062222 1 2 cbr 1000 ------- 2 1.0 2.0 70 76
r 0.062356 1 2 cbr 1000 ------- 2 1.0 2.0 58 62
+ 0.063111 1 2 cbr 1000 ------- 2 1.0 2.0 71 77
- 0.063111 1 2 cbr 1000 ------- 2 1.0 2.0 71 77
r 0.063163 1 4 ack 40 ------- 3 5.0 4.0 0 41
+ 0.063163 4 1 tcp 1000 ------- 3 4.0 5.0 1 78
- 0.063163 4 1 tcp 1000 ------- 3 4.0 5.0 1 78
r 0.063244 1 2 cbr 1000 ------- 2 1.0 2.0 59 63
+ 0.064 1 2 cbr 1000 ------- 2 1.0 2.0 72 79
- 0.064 1 2 cbr 1000 ------- 2 1.0 2.0 72 79
r 0.064133 1 2 cbr 1000 ------- 2 1.0 2.0 60 64
+ 0.064889 1 2 cbr 1000 ------- 2 1.0 2.0 73 80
- 0.064889 1 2 cbr 1000 ------- 2 1.0 2.0 73 80
r 0.065022 1 2 cbr 1000 ------- 2 1.0 2.0 61 65
+ 0.065778 1 2 cbr 1000 ------- 2 1.0 2.0 74 81
- 0.065778 1 2 cbr 1000 ------- 2 1.0 2.0 74 81
r 0.065911 1 2 cbr 1000 ------- 2 1.0 2.0 62 66
+ 0.066667 1 2 cbr 1000 ------- 2 1.0 2.0 75 82
- 0.066667 1 2 cbr 1000 ------- 2 1.0 2.0 75 82
r 0.0668 1 2 cbr 1000 ------- 2 1.0 2.0 63 67
+ 0.067556 1 2 cbr 1000 ------- 2 1.0 2.0 76 83
- 0.067556 1 2 cbr 1000 ------- 2 1.0 2.0 76 83
r 0.067689 1 2 cbr 1000 ------- 2 1.0 2.0 64 68
+ 0.068444 1 2 cbr 1000 ------- 2 1.0 2.0 77 84
- 0.068444 1 2 cbr 1000 ------- 2 1.0 2.0 77 84
r 0.068578 1 2 cbr 1000 ------- 2 1.0 2.0 65 69
+ 0.069333 1 2 cbr 1000 ------- 2 1.0 2.0 78 85
- 0.069333 1 2 cbr 1000 ------- 2 1.0 2.0 78 85
r 0.069467 1 2 cbr 1000 ------- 2 1.0 2.0 66 70
+ 0.070222 1 2 cbr 1000 ------- 2 1.0 2.0 79 86
- 0.070222 1 2 cbr 1000 ------- 2 1.0 2.0 79 86
r 0.070356 1 2 cbr 1000 ------- 2 1.0 2.0 67 71
+ 0.071111 1 2 cbr 1000 ------- 2 1.0 2.0 80 87
- 0.071111 1 2 cbr 1000 ------- 2 1.0 2.0 80 87
r 0.071244 1 2 cbr 1000 ------- 2 1.0 2.0 68 72
r 0.07157 0 1 tcp 1040 ------- 2 0.0 3.0 1 73
+ 0.07157 1 2 tcp 1040 ------- 2 0.0 3.0 1 73
- 0.071911 1 2 tcp 1040 ------- 2 0.0 3.0 1 73
+ 0.072 1 2 cbr 1000 ------- 2 1.0 2.0 81 88
r 0.072133 1 2 cbr 1000 ------- 2 1.0 2.0 69 75
r 0.072402 0 1 tcp 1040 ------- 2 0.0 3.0 2 74
+ 0.072402 1 2 tcp 1040 ------- 2 0.0 3.0 2 74
- 0.072743 1 2 cbr 1000 ------- 2 1.0 2.0 81 88
+ 0.072889 1 2 cbr 1000 ------- 2 1.0 2.0 82 89
r 0.073022 1 2 cbr 1000 ------- 2 1.0 2.0 70 76
- 0.073543 1 2 tcp 1040 ------- 2 0.0 3.0 2 74
+ 0.073778 1 2 cbr 1000 ------- 2 1.0 2.0 83 90
r 0.073911 1 2 cbr 1000 ------- 2 1.0 2.0 71 77
r 0.073963 4 1 tcp 1000 ------- 3 4.0 5.0 1 78
+ 0.073963 1 2 tcp 1000 ------- 3 4.0 5.0 1 78
- 0.074375 1 2 cbr 1000 ------- 2 1.0 2.0 82 89
+ 0.074667 1 2 cbr 1000 ------- 2 1.0 2.0 84 91
r 0.0748 1 2 cbr 1000 ------- 2 1.0 2.0 72 79
- 0.075175 1 2 cbr 1000 ------- 2 1.0 2.0 83 90
+ 0.075556 1 2 cbr 1000 ------- 2 1.0 2.0 85 92
r 0.075689 1 2 cbr 1000 ------- 2 1.0 2.0 73 80
- 0.075975 1 2 tcp 1000 ------- 3 4.0 5.0 1 78
+ 0.076444 1 2 cbr 1000 ------- 2 1.0 2.0 86 93
r 0.076578 1 2 cbr 1000 ------- 2 1.0 2.0 74 81
- 0.076775 1 2 cbr 1000 ------- 2 1.0 2.0 84 91
+ 0.077333 1 2 cbr 1000 ------- 2 1.0 2.0 87 94
r 0.077467 1 2 cbr 1000 ------- 2 1.0 2.0 75 82
- 0.077575 1 2 cbr 1000 ------- 2 1.0 2.0 85 92
+ 0.078222 1 2 cbr 1000 ------- 2 1.0 2.0 88 95
r 0.078356 1 2 cbr 1000 ------- 2 1.0 2.0 76 83
- 0.078375 1 2 cbr 1000 ------- 2 1.0 2.0 86 93
+ 0.079111 1 2 cbr 1000 ------- 2 1.0 2.0 89 96
- 0.079175 1 2 cbr 1000 ------- 2 1.0 2.0 87 94
r 0.079244 1 2 cbr 1000 ------- 2 1.0 2.0 77 84
- 0.079975 1 2 cbr 1000 ------- 2 1.0 2.0 88 95
+ 0.08 1 2 cbr 1000 ------- 2 1.0 2.0 90 97
r 0.080133 1 2 cbr 1000 ------- 2 1.0 2.0 78 85
- 0.080775 1 2 cbr 1000 ------- 2 1.0 2.0 89 96
+ 0.080889 1 2 cbr 1000 ------- 2 1.0 2.0 91 98
r 0.081022 1 2 cbr 1000 ------- 2 1.0 2.0 79 86
- 0.081575 1 2 cbr 1000 ------- 2 1.0 2.0 90 97
+ 0.081778 1 2 cbr 1000 ------- 2 1.0 2.0 92 99
r 0.081911 1 2 cbr 1000 ------- 2 1.0 2.0 80 87
- 0.082375 1 2 cbr 1000 ------- 2 1.0 2.0 91 98
+ 0.082667 1 2 cbr 1000 ------- 2 1.0 2.0 93 100
r 0.082743 1 2 tcp 1040 ------- 2 0.0 3.0 1 73
+ 0.082743 2 3 tcp 1040 ------- 2 0.0 3.0 1 73
- 0.082743 2 3 tcp 1040 ------- 2 0.0 3.0 1 73
- 0.083175 1 2 cbr 1000 ------- 2 1.0 2.0 92 99
r 0.083543 1 2 cbr 1000 ------- 2 1.0 2.0 81 88
+ 0.083556 1 2 cbr 1000 ------- 2 1.0 2.0 94 101
- 0.083975 1 2 cbr 1000 ------- 2 1.0 2.0 93 100
r 0.084375 1 2 tcp 1040 ------- 2 0.0 3.0 2 74
+ 0.084375 2 3 tcp 1040 ------- 2 0.0 3.0 2 74
- 0.084375 2 3 tcp 1040 ------- 2 0.0 3.0 2 74
+ 0.084444 1 2 cbr 1000 ------- 2 1.0 2.0 95 102
- 0.084775 1 2 cbr 1000 ------- 2 1.0 2.0 94 101
r 0.085175 1 2 cbr 1000 ------- 2 1.0 2.0 82 89
+ 0.085333 1 2 cbr 1000 ------- 2 1.0 2.0 96 103
- 0.085575 1 2 cbr 1000 ------- 2 1.0 2.0 95 102
r 0.085975 1 2 cbr 1000 ------- 2 1.0 2.0 83 90
+ 0.086222 1 2 cbr 1000 ------- 2 1.0 2.0 97 104
- 0.086375 1 2 cbr 1000 ------- 2 1.0 2.0 96 103
r 0.086775 1 2 tcp 1000 ------- 3 4.0 5.0 1 78
+ 0.086775 2 5 tcp 1000 ------- 3 4.0 5.0 1 78
- 0.086775 2 5 tcp 1000 ------- 3 4.0 5.0 1 78
+ 0.087111 1 2 cbr 1000 ------- 2 1.0 2.0 98 105
- 0.087175 1 2 cbr 1000 ------- 2 1.0 2.0 97 104
r 0.087575 1 2 cbr 1000 ------- 2 1.0 2.0 84 91
- 0.087975 1 2 cbr 1000 ------- 2 1.0 2.0 98 105
+ 0.088 1 2 cbr 1000 ------- 2 1.0 2.0 99 106
r 0.088375 1 2 cbr 1000 ------- 2 1.0 2.0 85 92
- 0.088775 1 2 cbr 1000 ------- 2 1.0 2.0 99 106
+ 0.088889 1 2 cbr 1000 ------- 2 1.0 2.0 100 107
r 0.089175 1 2 cbr 1000 ------- 2 1.0 2.0 86 93
- 0.089575 1 2 cbr 1000 ------- 2 1.0 2.0 100 107
+ 0.089778 1 2 cbr 1000 ------- 2 1.0 2.0 101 108
r 0.089975 1 2 cbr 1000 ------- 2 1.0 2.0 87 94
- 0.090375 1 2 cbr 1000 ------- 2 1.0 2.0 101 108
+ 0.090667 1 2 cbr 1000 ------- 2 1.0 2.0 102 109
r 0.090775 1 2 cbr 1000 ------- 2 1.0 2.0 88 95
- 0.091175 1 2 cbr 1000 ------- 2 1.0 2.0 102 109
+ 0.091556 1 2 cbr 1000 ------- 2 1.0 2.0 103 110
r 0.091575 1 2 cbr 1000 ------- 2 1.0 2.0 89 96
- 0.091975 1 2 cbr 1000 ------- 2 1.0 2.0 103 110
r 0.092375 1 2 cbr 1000 ------- 2 1.0 2.0 90 97
+ 0.092444 1 2 cbr 1000 ------- 2 1.0 2.0 104 111
- 0.092775 1 2 cbr 1000 ------- 2 1.0 2.0 104 111
r 0.093175 1 2 cbr 1000 ------- 2 1.0 2.0 91 98
+ 0.093333 1 2 cbr 1000 ------- 2 1.0 2.0 105 112
- 0.093575 1 2 cbr 1000 ------- 2 1.0 2.0 105 112
r 0.093575 2 3 tcp 1040 ------- 2 0.0 3.0 1 73
+ 0.093575 3 2 ack 40 ------- 2 3.0 0.0 1 113
- 0.093575 3 2 ack 40 ------- 2 3.0 0.0 1 113
r 0.093975 1 2 cbr 1000 ------- 2 1.0 2.0 92 99
+ 0.094222 1 2 cbr 1000 ------- 2 1.0 2.0 106 114
- 0.094375 1 2 cbr 1000 ------- 2 1.0 2.0 106 114
r 0.094775 1 2 cbr 1000 ------- 2 1.0 2.0 93 100
+ 0.095111 1 2 cbr 1000 ------- 2 1.0 2.0 107 115
- 0.095175 1 2 cbr 1000 ------- 2 1.0 2.0 107 115
r 0.095207 2 3 tcp 1040 ------- 2 0.0 3.0 2 74
+ 0.095207 3 2 ack 40 ------- 2 3.0 0.0 2 116
- 0.095207 3 2 ack 40 ------- 2 3.0 0.0 2 116
r 0.095575 1 2 cbr 1000 ------- 2 1.0 2.0 94 101
+ 0.096 1 2 cbr 1000 ------- 2 1.0 2.0 108 117
- 0.096 1 2 cbr 1000 ------- 2 1.0 2.0 108 117
r 0.096375 1 2 cbr 1000 ------- 2 1.0 2.0 95 102
+ 0.096889 1 2 cbr 1000 ------- 2 1.0 2.0 109 118
- 0.096889 1 2 cbr 1000 ------- 2 1.0 2.0 109 118
r 0.097175 1 2 cbr 1000 ------- 2 1.0 2.0 96 103
r 0.097575 2 5 tcp 1000 ------- 3 4.0 5.0 1 78
+ 0.097575 5 2 ack 40 ------- 3 5.0 4.0 1 119
- 0.097575 5 2 ack 40 ------- 3 5.0 4.0 1 119
+ 0.097778 1 2 cbr 1000 ------- 2 1.0 2.0 110 120
- 0.097778 1 2 cbr 1000 ------- 2 1.0 2.0 110 120
r 0.097975 1 2 cbr 1000 ------- 2 1.0 2.0 97 104
+ 0.098667 1 2 cbr 1000 ------- 2 1.0 2.0 111 121
- 0.098667 1 2 cbr 1000 ------- 2 1.0 2.0 111 121
r 0.098775 1 2 cbr 1000 ------- 2 1.0 2.0 98 105
+ 0.099556 1 2 cbr 1000 ------- 2 1.0 2.0 112 122
- 0.099556 1 2 cbr 1000 ------- 2 1.0 2.0 112 122
r 0.099575 1 2 cbr 1000 ------- 2 1.0 2.0 99 106
r 0.100375 1 2 cbr 1000 ------- 2 1.0 2.0 100 107
+ 0.100444 1 2 cbr 1000 ------- 2 1.0 2.0 113 123
- 0.100444 1 2 cbr 1000 ------- 2 1.0 2.0 113 123
r 0.101175 1 2 cbr 1000 ------- 2 1.0 2.0 101 108
+ 0.101333 1 2 cbr 1000 ------- 2 1.0 2.0 114 124
- 0.101333 1 2 cbr 1000 ------- 2 1.0 2.0 114 124
r 0.101975 1 2 cbr 1000 ------- 2 1.0 2.0 102 109
+ 0.102222 1 2 cbr 1000 ------- 2 1.0 2.0 115 125
- 0.102222 1 2 cbr 1000 ------- 2 1.0 2.0 115 125
r 0.102775 1 2 cbr 1000 ------- 2 1.0 2.0 103 110
+ 0.103111 1 2 cbr 1000 ------- 2 1.0 2.0 116 126
- 0.103111 1 2 cbr 1000 ------- 2 1.0 2.0 116 126
r 0.103575 1 2 cbr 1000 ------- 2 1.0 2.0 104 111
r 0.103607 3 2 ack 40 ------- 2 3.0 0.0 1 113
+ 0.103607 2 1 ack 40 ------- 2 3.0 0.0 1 113
- 0.103607 2 1 ack 40 ------- 2 3.0 0.0 1 113
+ 0.104 1 2 cbr 1000 ------- 2 1.0 2.0 117 127
- 0.104 1 2 cbr 1000 ------- 2 1.0 2.0 117 127
r 0.104375 1 2 cbr 1000 ------- 2 1.0 2.0 105 112
+ 0.104889 1 2 cbr 1000 ------- 2 1.0 2.0 118 128
- 0.104889 1 2 cbr 1000 ------- 2 1.0 2.0 118 128
r 0.105175 1 2 cbr 1000 ------- 2 1.0 2.0 106 114
r 0.105239 3 2 ack 40 ------- 2 3.0 0.0 2 116
+ 0.105239 2 1 ack 40 ------- 2 3.0 0.0 2 116
- 0.105239 2 1 ack 40 ------- 2 3.0 0.0 2 116
+ 0.105778 1 2 cbr 1000 ------- 2 1.0 2.0 119 129
- 0.105778 1 2 cbr 1000 ------- 2 1.0 2.0 119 129
r 0.105975 1 2 cbr 1000 ------- 2 1.0 2.0 107 115
+ 0.106667 1 2 cbr 1000 ------- 2 1.0 2.0 120 130
- 0.106667 1 2 cbr 1000 ------- 2 1.0 2.0 120 130
r 0.1068 1 2 cbr 1000 ------- 2 1.0 2.0 108 117
+ 0.107556 1 2 cbr 1000 ------- 2 1.0 2.0 121 131
- 0.107556 1 2 cbr 1000 ------- 2 1.0 2.0 121 131
r 0.107607 5 2 ack 40 ------- 3 5.0 4.0 1 119
+ 0.107607 2 1 ack 40 ------- 3 5.0 4.0 1 119
- 0.107607 2 1 ack 40 ------- 3 5.0 4.0 1 119
r 0.107689 1 2 cbr 1000 ------- 2 1.0 2.0 109 118
+ 0.108444 1 2 cbr 1000 ------- 2 1.0 2.0 122 132
- 0.108444 1 2 cbr 1000 ------- 2 1.0 2.0 122 132
r 0.108578 1 2 cbr 1000 ------- 2 1.0 2.0 110 120
+ 0.109333 1 2 cbr 1000 ------- 2 1.0 2.0 123 133
- 0.109333 1 2 cbr 1000 ------- 2 1.0 2.0 123 133
r 0.109467 1 2 cbr 1000 ------- 2 1.0 2.0 111 121
+ 0.110222 1 2 cbr 1000 ------- 2 1.0 2.0 124 134
- 0.110222 1 2 cbr 1000 ------- 2 1.0 2.0 124 134
r 0.110356 1 2 cbr 1000 ------- 2 1.0 2.0 112 122
+ 0.111111 1 2 cbr 1000 ------- 2 1.0 2.0 125 135
- 0.111111 1 2 cbr 1000 ------- 2 1.0 2.0 125 135
r 0.111244 1 2 cbr 1000 ------- 2 1.0 2.0 113 123
+ 0.112 1 2 cbr 1000 ------- 2 1.0 2.0 126 136
- 0.112 1 2 cbr 1000 ------- 2 1.0 2.0 126 136
r 0.112133 1 2 cbr 1000 ------- 2 1.0 2.0 114 124
+ 0.112889 1 2 cbr 1000 ------- 2 1.0 2.0 127 137
- 0.112889 1 2 cbr 1000 ------- 2 1.0 2.0 127 137
r 0.113022 1 2 cbr 1000 ------- 2 1.0 2.0 115 125
r 0.113639 2 1 ack 40 ------- 2 3.0 0.0 1 113
+ 0.113639 1 0 ack 40 ------- 2 3.0 0.0 1 113
- 0.113639 1 0 ack 40 ------- 2 3.0 0.0 1 113
+ 0.113778 1 2 cbr 1000 ------- 2 1.0 2.0 128 138
- 0.113778 1 2 cbr 1000 ------- 2 1.0 2.0 128 138
r 0.113911 1 2 cbr 1000 ------- 2 1.0 2.0 116 126
+ 0.114667 1 2 cbr 1000 ------- 2 1.0 2.0 129 139
- 0.114667 1 2 cbr 1000 ------- 2 1.0 2.0 129 139
r 0.1148 1 2 cbr 1000 ------- 2 1.0 2.0 117 127
r 0.115271 2 1 ack 40 ------- 2 3.0 0.0 2 116
+ 0.115271 1 0 ack 40 ------- 2 3.0 0.0 2 116
- 0.115271 1 0 ack 40 ------- 2 3.0 0.0 2 116
+ 0.115556 1 2 cbr 1000 ------- 2 1.0 2.0 130 140
- 0.115556 1 2 cbr 1000 ------- 2 1.0 2.0 130 140
r 0.115689 1 2 cbr 1000 ------- 2 1.0 2.0 118 128
+ 0.116444 1 2 cbr 1000 ------- 2 1.0 2.0 131 141
- 0.116444 1 2 cbr 1000 ------- 2 1.0 2.0 131 141
r 0.116578 1 2 cbr 1000 ------- 2 1.0 2.0 119 129
+ 0.117333 1 2 cbr 1000 ------- 2 1.0 2.0 132 142
- 0.117333 1 2 cbr 1000 ------- 2 1.0 2.0 132 142
r 0.117467 1 2 cbr 1000 ------- 2 1.0 2.0 120 130
r 0.117639 2 1 ack 40 ------- 3 5.0 4.0 1 119
+ 0.117639 1 4 ack 40 ------- 3 5.0 4.0 1 119
- 0.117639 1 4 ack 40 ------- 3 5.0 4.0 1 119
+ 0.118222 1 2 cbr 1000 ------- 2 1.0 2.0 133 143
- 0.118222 1 2 cbr 1000 ------- 2 1.0 2.0 133 143
r 0.118356 1 2 cbr 1000 ------- 2 1.0 2.0 121 131
+ 0.119111 1 2 cbr 1000 ------- 2 1.0 2.0 134 144
- 0.119111 1 2 cbr 1000 ------- 2 1.0 2.0 134 144
r 0.119244 1 2 cbr 1000 ------- 2 1.0 2.0 122 132
+ 0.12 1 2 cbr 1000 ------- 2 1.0 2.0 135 145
- 0.12 1 2 cbr 1000 ------- 2 1.0 2.0 135 145
r 0.120133 1 2 cbr 1000 ------- 2 1.0 2.0 123 133
+ 0.120889 1 2 cbr 1000 ------- 2 1.0 2.0 136 146
- 0.120889 1 2 cbr 1000 ------- 2 1.0 2.0 136 146
r 0.121022 1 2 cbr 1000 ------- 2 1.0 2.0 124 134
+ 0.121778 1 2 cbr 1000 ------- 2 1.0 2.0 137 147
- 0.121778 1 2 cbr 1000 ------- 2 1.0 2.0 137 147
r 0.121911 1 2 cbr 1000 ------- 2 1.0 2.0 125 135
+ 0.122667 1 2 cbr 1000 ------- 2 1.0 2.0 138 148
- 0.122667 1 2 cbr 1000 ------- 2 1.0 2.0 138 148
r 0.1228 1 2 cbr 1000 ------- 2 1.0 2.0 126 136
+ 0.123556 1 2 cbr 1000 ------- 2 1.0 2.0 139 149
- 0.123556 1 2 cbr 1000 ------- 2 1.0 2.0 139 149
r 0.123671 1 0 ack 40 ------- 2 3.0 0.0 1 113
+ 0.123671 0 1 tcp 1040 ------- 2 0.0 3.0 3 150
- 0.123671 0 1 tcp 1040 ------- 2 0.0 3.0 3 150
+ 0.123671 0 1 tcp 1040 ------- 2 0.0 3.0 4 151
r 0.123689 1 2 cbr 1000 ------- 2 1.0 2.0 127 137
+ 0.124444 1 2 cbr 1000 ------- 2 1.0 2.0 140 152
- 0.124444 1 2 cbr 1000 ------- 2 1.0 2.0 140 152
- 0.124503 0 1 tcp 1040 ------- 2 0.0 3.0 4 151
r 0.124578 1 2 cbr 1000 ------- 2 1.0 2.0 128 138
r 0.125303 1 0 ack 40 ------- 2 3.0 0.0 2 116
+ 0.125303 0 1 tcp 1040 ------- 2 0.0 3.0 5 153
+ 0.125303 0 1 tcp 1040 ------- 2 0.0 3.0 6 154
+ 0.125333 1 2 cbr 1000 ------- 2 1.0 2.0 141 155
- 0.125333 1 2 cbr 1000 ------- 2 1.0 2.0 141 155
- 0.125335 0 1 tcp 1040 ------- 2 0.0 3.0 5 153
r 0.125467 1 2 cbr 1000 ------- 2 1.0 2.0 129 139
- 0.126167 0 1 tcp 1040 ------- 2 0.0 3.0 6 154
+ 0.126222 1 2 cbr 1000 ------- 2 1.0 2.0 142 156
- 0.126222 1 2 cbr 1000 ------- 2 1.0 2.0 142 156
r 0.126356 1 2 cbr 1000 ------- 2 1.0 2.0 130 140
+ 0.127111 1 2 cbr 1000 ------- 2 1.0 2.0 143 157
- 0.127111 1 2 cbr 1000 ------- 2 1.0 2.0 143 157
r 0.127244 1 2 cbr 1000 ------- 2 1.0 2.0 131 141
r 0.127671 1 4 ack 40 ------- 3 5.0 4.0 1 119
+ 0.127671 4 1 tcp 1000 ------- 3 4.0 5.0 2 158
- 0.127671 4 1 tcp 1000 ------- 3 4.0 5.0 2 158
+ 0.127671 4 1 tcp 1000 ------- 3 4.0 5.0 3 159
+ 0.127671 4 1 tcp 1000 ------- 3 4.0 5.0 4 160
+ 0.128 1 2 cbr 1000 ------- 2 1.0 2.0 144 161
- 0.128 1 2 cbr 1000 ------- 2 1.0 2.0 144 161
r 0.128133 1 2 cbr 1000 ------- 2 1.0 2.0 132 142
- 0.128471 4 1 tcp 1000 ------- 3 4.0 5.0 3 159
+ 0.128889 1 2 cbr 1000 ------- 2 1.0 2.0 145 162
- 0.128889 1 2 cbr 1000 ------- 2 1.0 2.0 145 162
r 0.129022 1 2 cbr 1000 ------- 2 1.0 2.0 133 143
- 0.129271 4 1 tcp 1000 ------- 3 4.0 5.0 4 160
+ 0.129778 1 2 cbr 1000 ------- 2 1.0 2.0 146 163
- 0.129778 1 2 cbr 1000 ------- 2 1.0 2.0 146 163
r 0.129911 1 2 cbr 1000 ------- 2 1.0 2.0 134 144
+ 0.130667 1 2 cbr 1000 ------- 2 1.0 2.0 147 164
- 0.130667 1 2 cbr 1000 ------- 2 1.0 2.0 147 164
r 0.1308 1 2 cbr 1000 ------- 2 1.0 2.0 135 145
+ 0.131556 1 2 cbr 1000 ------- 2 1.0 2.0 148 165
- 0.131556 1 2 cbr 1000 ------- 2 1.0 2.0 148 165
r 0.131689 1 2 cbr 1000 ------- 2 1.0 2.0 136 146
+ 0.132444 1 2 cbr 1000 ------- 2 1.0 2.0 149 166
- 0.132444 1 2 cbr 1000 ------- 2 1.0 2.0 149 166
r 0.132578 1 2 cbr 1000 ------- 2 1.0 2.0 137 147
+ 0.133333 1 2 cbr 1000 ------- 2 1.0 2.0 150 167
- 0.133333 1 2 cbr 1000 ------- 2 1.0 2.0 150 167
r 0.133467 1 2 cbr 1000 ------- 2 1.0 2.0 138 148
+ 0.134222 1 2 cbr 1000 ------- 2 1.0 2.0 151 168
- 0.134222 1 2 cbr 1000 ------- 2 1.0 2.0 151 168
r 0.134356 1 2 cbr 1000 ------- 2 1.0 2.0 139 149
r 0.134503 0 1 tcp 1040 ------- 2 0.0 3.0 3 150
+ 0.134503 1 2 tcp 1040 ------- 2 0.0 3.0 3 150
- 0.135022 1 2 tcp 1040 ------- 2 0.0 3.0 3 150
+ 0.135111 1 2 cbr 1000 ------- 2 1.0 2.0 152 169
r 0.135244 1 2 cbr 1000 ------- 2 1.0 2.0 140 152
r 0.135335 0 1 tcp 1040 ------- 2 0.0 3.0 4 151
+ 0.135335 1 2 tcp 1040 ------- 2 0.0 3.0 4 151
- 0.135854 1 2 cbr 1000 ------- 2 1.0 2.0 152 169
+ 0.136 1 2 cbr 1000 ------- 2 1.0 2.0 153 170
r 0.136133 1 2 cbr 1000 ------- 2 1.0 2.0 141 155
r 0.136167 0 1 tcp 1040 ------- 2 0.0 3.0 5 153
+ 0.136167 1 2 tcp 1040 ------- 2 0.0 3.0 5 153
- 0.136654 1 2 tcp 1040 ------- 2 0.0 3.0 4 151
+ 0.136889 1 2 cbr 1000 ------- 2 1.0 2.0 154 171
r 0.136999 0 1 tcp 1040 ------- 2 0.0 3.0 6 154
+ 0.136999 1 2 tcp 1040 ------- 2 0.0 3.0 6 154
r 0.137022 1 2 cbr 1000 ------- 2 1.0 2.0 142 156
- 0.137486 1 2 cbr 1000 ------- 2 1.0 2.0 153 170
+ 0.137778 1 2 cbr 1000 ------- 2 1.0 2.0 155 172
r 0.137911 1 2 cbr 1000 ------- 2 1.0 2.0 143 157
- 0.138286 1 2 tcp 1040 ------- 2 0.0 3.0 5 153
r 0.138471 4 1 tcp 1000 ------- 3 4.0 5.0 2 158
+ 0.138471 1 2 tcp 1000 ------- 3 4.0 5.0 2 158
+ 0.138667 1 2 cbr 1000 ------- 2 1.0 2.0 156 173
r 0.1388 1 2 cbr 1000 ------- 2 1.0 2.0 144 161
- 0.139118 1 2 cbr 1000 ------- 2 1.0 2.0 154 171
r 0.139271 4 1 tcp 1000 ------- 3 4.0 5.0 3 159
+ 0.139271 1 2 tcp 1000 ------- 3 4.0 5.0 3 159
+ 0.139556 1 2 cbr 1000 ------- 2 1.0 2.0 157 174
r 0.139689 1 2 cbr 1000 ------- 2 1.0 2.0 145 162
- 0.139918 1 2 tcp 1040 ------- 2 0.0 3.0 6 154
r 0.140071 4 1 tcp 1000 ------- 3 4.0 5.0 4 160
+ 0.140071 1 2 tcp 1000 ------- 3 4.0 5.0 4 160
+ 0.140444 1 2 cbr 1000 ------- 2 1.0 2.0 158 175
r 0.140578 1 2 cbr 1000 ------- 2 1.0 2.0 146 163
- 0.14075 1 2 cbr 1000 ------- 2 1.0 2.0 155 172
+ 0.141333 1 2 cbr 1000 ------- 2 1.0 2.0 159 176
r 0.141467 1 2 cbr 1000 ------- 2 1.0 2.0 147 164
- 0.14155 1 2 tcp 1000 ------- 3 4.0 5.0 2 158
+ 0.142222 1 2 cbr 1000 ------- 2 1.0 2.0 160 177
- 0.14235 1 2 cbr 1000 ------- 2 1.0 2.0 156 173
r 0.142356 1 2 cbr 1000 ------- 2 1.0 2.0 148 165
+ 0.143111 1 2 cbr 1000 ------- 2 1.0 2.0 161 178
- 0.14315 1 2 tcp 1000 ------- 3 4.0 5.0 3 159
r 0.143244 1 2 cbr 1000 ------- 2 1.0 2.0 149 166
- 0.14395 1 2 cbr 1000 ------- 2 1.0 2.0 157 174
+ 0.144 1 2 cbr 1000 ------- 2 1.0 2.0 162 179
r 0.144133 1 2 cbr 1000 ------- 2 1.0 2.0 150 167
- 0.14475 1 2 tcp 1000 ------- 3 4.0 5.0 4 160
+ 0.144889 1 2 cbr 1000 ------- 2 1.0 2.0 163 180
r 0.145022 1 2 cbr 1000 ------- 2 1.0 2.0 151 168
- 0.14555 1 2 cbr 1000 ------- 2 1.0 2.0 158 175
+ 0.145778 1 2 cbr 1000 ------- 2 1.0 2.0 164 181
r 0.145854 1 2 tcp 1040 ------- 2 0.0 3.0 3 150
+ 0.145854 2 3 tcp 1040 ------- 2 0.0 3.0 3 150
- 0.145854 2 3 tcp 1040 ------- 2 0.0 3.0 3 150
- 0.14635 1 2 cbr 1000 ------- 2 1.0 2.0 159 176
r 0.146654 1 2 cbr 1000 ------- 2 1.0 2.0 152 169
+ 0.146667 1 2 cbr 1000 ------- 2 1.0 2.0 165 182
- 0.14715 1 2 cbr 1000 ------- 2 1.0 2.0 160 177
r 0.147486 1 2 tcp 1040 ------- 2 0.0 3.0 4 151
+ 0.147486 2 3 tcp 1040 ------- 2 0.0 3.0 4 151
- 0.147486 2 3 tcp 1040 ------- 2 0.0 3.0 4 151
+ 0.147556 1 2 cbr 1000 ------- 2 1.0 2.0 166 183
- 0.14795 1 2 cbr 1000 ------- 2 1.0 2.0 161 178
r 0.148286 1 2 cbr 1000 ------- 2 1.0 2.0 153 170
+ 0.148444 1 2 cbr 1000 ------- 2 1.0 2.0 167 184
- 0.14875 1 2 cbr 1000 ------- 2 1.0 2.0 162 179
r 0.149118 1 2 tcp 1040 ------- 2 0.0 3.0 5 153
+ 0.149118 2 3 tcp 1040 ------- 2 0.0 3.0 5 153
- 0.149118 2 3 tcp 1040 ------- 2 0.0 3.0 5 153
+ 0.149333 1 2 cbr 1000 ------- 2 1.0 2.0 168 185
- 0.14955 1 2 cbr 1000 ------- 2 1.0 2.0 163 180
r 0.149918 1 2 cbr 1000 ------- 2 1.0 2.0 154 171
+ 0.150222 1 2 cbr 1000 ------- 2 1.0 2.0 169 186
- 0.15035 1 2 cbr 1000 ------- 2 1.0 2.0 164 181
r 0.15075 1 2 tcp 1040 ------- 2 0.0 3.0 6 154